CASRN	Chemical	Tt	Tc	A	B	C
7440-59-7	Helium-4 	0.95	5.3	0.65116	0.09654	-0.38692
7440-01-9	Neon 	24.5	44.5	8.2803	17.3278	-2.7336
7440-37-1	Argon 	83.78	150.69	32.9574	17.1975	-18.4004
7439-90-9	Krypton 	116.55	209.4	12.0211	-156.265	395.4992
7782-41-4	Fluorine 	53	144.3	36.9689	23.9993	-30.0548
7782-50-5	Chlorine 	171.55	416.9	71.0242	21.9901	-22.2131
10024-97-2	Nitrous oxide 	170.85	309.6	78.0454	-1.8982	-33.0621
7783-09-7	Hydrogen telluride 	146.35	271.2	88.1547	-82.046	39.02672
13465-07-1	Hydrogen disulfide 	185.15	572	130.1176	-40.6216	4.7716
463-58-1	Carbonyl sulfide 	135	375.1	55.8252	33.3367	-28.7857
2696-92-6	Nitrosyl chloride 	208.65	440	133.0218	-101.932	27.4667
7789-25-5	Nitrosyl fluoride 	139.15	344.2	107.5196	-105.9891	25.3166
74-82-8	Methane 	90.69	190.55	30.8936	24.9105	-6.8276
74-85-1	Ethylene 	104	282.34	53.4828	-13.2207	19.9706
624-64-6	2-Butene 	134.24	435.58	53.2909	7.5389	-6.8388
513-35-9	2-Methyl-2-butene 	139.38	481	60.3193	-9.848	5.7089
110-83-8	Cyclohexene	169.64	560.48	68.8892	3.0521	-1.438
71-36-3	Butanol 	184.51	563.05	90.0628	-63.9846	9.8636
7637-07-2	Boron trifluoride 	146.35	260.8	88.1547	-82.046	39.0267