CAS	name	Tm	Tb
2556-46-9	N,N′-Diphenylbenzamidine	417.15	
25561-30-2	Bis(trimethylsilyl)trifluoroacetamide	263.15	
25566-16-9	3,4-Dihydroxy-2,5-hexanedione	347.15	
25567-67-3	Chlorodinitrobenzene	324.15	
25568-84-7	Cyclopentadiene homopolymer	358.15	
25569-53-3	Ethylene glycol-succinic acid copolymer	377.05	
2557-13-3	Benzoic acid, 3-(trifluoromethyl)-, methyl ester		367.15
2557-77-9	3-Fluorothiophenol		429.15
25570-02-9	3,3′,5,5′-Tetramethyl-1,1′-biphenyl	321.95	
25570-03-0	(2S)-2-Methylbutanenitrile		397.65
25573-43-7	1,2-Oxazino[6,5-b]indol-6-ol, 2,3,4,4a,9,9a-hexahydro-2,4a,9-trimethyl-, 6-(N-methylcarbamate), (4aS,9aS)-	402.15	
25575-88-6	5-Oxo-L-prolyl-L-histidine methyl ester	452.15	
25575-89-7	5-Oxo-L-prolyl-L-histidine hydrazide	517.15	
2558-18-1	3-(4-Fluorobenzylidene)phthalide	408.65	
2558-30-7	Desmethylflunitrazepam	483.65	
255837-19-5	2-(Di-tert-butylphosphino)-2′-methyl-1,1′-biphenyl	364.65	
25584-83-2	Hydroxypropyl acrylate	243.15	
25586-43-0	Chloronaphthalene	248.15	532.15
25587-80-8	11-Aminoundecanoic acid homopolymer	459.15	
25594-62-1	1-(2-Quinoxalinyl)ethanone	350.15	
25595-59-9	α-Chloro-α-hydroxy-o-toluene sulfonic acid γ-sultone	385.65	
25597-16-4	Ethyl (2E)-4,4,4-trifluoro-2-butenoate		388.15
256-81-5	5H-Dibenzo[a,d]cycloheptene	319.15	
256-96-2	Dibenz[b,f]azepine	471.15	
25606-41-1	Propamocarb hydrochloride	323.15	
25608-26-8	Ethylene-methacrylic acid copolymer sodium salt	438.35	
25608-40-6	Poly(L-aspartic acid)	413.15	
25608-79-1	Ethylene-propylene-styrene copolymer	493.15	
2561-85-5	Dodecylsuccinic anhydride	346.15	
25611-78-3	1,2-Diphenylethylamine		584.15
25612-07-1	4-Amino-N-(4-cyanophenyl)benzenesulfonamide	451.9	
25614-03-3	(+)-Bromocriptine	489.65	
25619-60-7	Tetramethylbenzene	249.45	471.15
2562-38-1	Nitrocyclopentane	416.65	
2562-52-9	2,6,8-Trichloro-9H-purine	458.15	
25620-59-1	Aminoanthraquinone	539.65	
25625-62-1	1,4-Dihydro-6-methyl-2,3-quinoxalinedithione	561.15	
25627-36-5	1-Propanamine, 3-dibenzo[b,e]thiepin-11(6H)-ylidene-N,N-dimethyl-, hydrochloride, (E)-	501.15	
25628-84-6	Methyl 2-[(1-oxopropyl)amino]benzoate	307.15	
2563-07-7	2-Ethoxy-4-methylphenol	307.65	
2563-97-5	2,2,2-Trichloro-N-phenylacetamide	369.15	
25632-22-8	1,8-Bis[(3-methylphenyl)amino]-9,10-anthracenedione	478.15	
25633-33-4	Cerberin	486.65	
25637-84-7	Diolein	285.15	
25637-99-4	Hexabromocyclododecane	453.65	
25639-21-8	Poly(octadecyl methacrylate)	309.15	
25639-42-3	Methylcyclohexanol	223.15	440.65
25639-68-3	Bisphenol A-isophthaloyl chloride-terephthaloyl chloride copolymer	563.15	
2564-02-5	N-(4-Bromophenyl)-2-chloroacetamide	453.65	
2564-06-9	N-Benzyl-2-chloroacetamide	367.15	
2564-65-0	Benz[a]anthracene-7,12-dimethanol	495.65	
2564-83-2	Tempo	308.15	
2564-95-6	N,N-Dimethylsuccinamic acid	439.15	
25640-14-6	1,4-Cyclohexanedimethanol-dimethyl terephthalate-ethylene glycol copolymer	507.15	
25640-76-0	Bis(chloromethyl)dimethylbenzene	367.15	
25640-78-2	Isopropylbiphenyl	233.15	569.65
25641-99-0	1,2-Bis(dichloromethyl)benzene	363.15	
2565-01-7	Nantenine	386.65	
2565-07-3	Silanediol, 1,1-diphenyl-, 1,1-diacetate	340.05	
2565-43-7	5-(2-Propen-1-yl)-2,4,6(1H,3H,5H)-pyrimidinetrione	440.15	
2565-47-1	1-Methyl-2,4,6(1H,3H,5H)-pyrimidinetrione	405.15	
2565-58-4	P-(Chloromethyl)phosphonic acid	365.15	
25653-16-1	Phenol, 3,5-dimethyl-, 1,1′,1′′-phosphate	319.15	
25654-31-3	Cannabigerol	322.65	
25659-22-7	4-Hexen-2-one		400.15
2566-22-5	Benzoyl-L-phenylalanine	457.15	
2566-34-9	α-(Methylamino)isobutyric acid	545.15	
2566-44-1	2-Cyclopropylethanol		408.15
25660-70-2	5-(Ethylthio)-1,3,4-thiadiazol-2-amine	409.65	
25660-71-3	5-[(Phenylmethyl)thio]-1,3,4-thiadiazol-2-amine	431.15	
256640-45-6	1-[(3R,4R)-1-(Cyclooctylmethyl)-3-(hydroxymethyl)-4-piperidinyl]-3-ethyl-1,3-dihydro-2H-benzimidazol-2-one	418.4	
25665-01-4	2-[[4-[Bis(2-hydroxyethyl)amino]-2-methylphenyl]methylene]propanedinitrile	412.15	
2567-14-8	1,1,3-Trichloro-1-propene		404.65
2567-85-3	Cyclooctanone tosylhydrazone	413.15	
25672-33-7	Acetic acid, 2-(4-chlorophenoxy)-, compd. with N,N-dimethylimidodicarbonimidic diamide (1:1)	463.15	
2568-25-4	4-Methyl-2-phenyl-1,3-dioxolane		391.15
2568-30-1	2-(Chloromethyl)-1,3-dioxolane		431.15
2568-33-4	3-Methyl-1,3-butanediol		475.65
2568-34-5	N-Benzoyl-N-methylglycine	376.9	
2568-89-0	2,2′-[Methylenebis(oxy)]bis[propane]		391.65
2568-90-3	Dibutoxymethane	215.05	452.35
2568-91-4	2-Methyl-1-[(2-methylpropoxy)methoxy]propane		438.65
2568-96-9	2-Ethyl-1,3-dioxolane		379.15
25680-54-0	3-Ethyl-2(1H)-pyrazinone	375.65	
25683-07-2	Pyoluteorin	447.65	
25683-71-0	4,4′-[1,4-Phenylenebis(methylidynenitrilo)]bis[3-isoxazolidinone]	477.65	
25684-04-2	2-Hydroxy-3-propyl-2-cyclopenten-1-one	330.15	
25684-76-8	Tetrafluoroethylene-vinylidene fluoride copolymer	404.15	
25685-29-4	Ethyl methacrylate-methyl methacrylate copolymer	323.15	
2569-01-9	2,4-D-Trolamine	369.15	
2569-58-6	4-(2-Phenyldiazenyl)pyridine	371.65	
257-07-8	Dibenz[b,f][1,4]oxazepine	341.65	
2570-26-5	Pentadecylamine	310.45	580.75
25709-55-1	Thiophenium, 1-(2-ethoxy-2-oxoethyl)tetrahydro-, bromide (1:1)	400.65	
25709-81-3	2′,7′-Dibromo-3′,6′-dihydroxyspiro[isobenzofuran-1(3H),9′-[9H]xanthen]-3-one	573.65	
2571-22-4	Coriaria lactone	485.65	
2571-39-3	3,4-Dimethylbenzophenone	320.65	614.15
2571-54-2	2,4,6-Trimethoxybenzonitrile	416.15	
2571-81-5	Coronopilin	450.65	
2571-86-0	(1aS,1bR,2S,2′R,5S,6aR,7aR,8R)-Hexahydro-1b-hydroxy-6a-methyl-8-(1-methylethenyl)spiro[2,5-methano-7H-oxireno[3,4]cyclopent[1,2-d]oxepin-7,2′-oxiran]-3(2H)-one	495.65	
2571-88-2	Octadecyldimethylamine oxide	414.65	
2571-90-6	Pyridine, 2-ethenyl-, 1-oxide	318.15	
25711-26-6	1,4-Bis(tributylstannyl) 2-methylenebutanedioate	334.15	
25712-17-8	4-(2-Benzothiazolylthio)benzenamine	396.15	
25713-60-4	2,4,6-Tris(2,4,6-tribromophenoxy)-1,3,5-triazine	503.15	
25714-71-0	4-Hydroxybutanal		339.65
25717-11-7	2-[2-(4-Aminophenyl)diazenyl]-4-methylphenol	412.15	
25717-80-0	Molsidomine	413.65	
25718-70-1	Hexanedioic acid, polymer with 1,3-benzenedimethanamine	516.15	
25719-60-2	Poly(β-pinene)	388.15	
2572-38-5	2-(Diethylamino)ethyl benzeneacetate		398.15
25722-07-0	Hexamethylenediamine-isophthalic acid copolymer	471.15	
25722-29-6	Poly[(dimethylsilylene)-1,3-propanediyl]	316.15	
25722-45-6	Maleic anhydride-propylene copolymer	379.15	
25722-66-1	Cyanic acid, C,C′-[(1-methylethylidene)di-4,1-phenylene] ester, homopolymer	339.15	
25727-91-7	4-Hexadecylmorpholine	301.15	
25727-93-9	N-Tetradecylmorpholine	290.15	
25727-94-0	N-Decylmorpholine		536.15
2573-69-5	(T-4)-Bis(dicyclohexylphosphinodithioato-κS,κS′)zinc	488.65	
2573-70-8	Phosphinodithioic acid, P,P-dibutyl-, ammonium salt (1:1)	371.15	
25732-74-5	3,4-Dihydrocyclopenta[cd]pyrene	406.65	
25734-27-4	Polyglycine	568.15	
25735-29-9	Propane, trichloro-		318.15
25737-87-5	2-(Tetradecylamino)ethanol	357.15	
2574-78-9	Orazamide	557.65	
25744-09-6	Disperse Yellow 124	553.15	
25747-41-5	4-Hydroxy-2-pyrrolidinone	358.15	
25748-37-2	1,4-Benzenedicarboxylic acid, polymer with 1,2-ethanediol and hexanedioic acid	482.15	
25749-60-4	2-Propenoic acid, ethyl ester, polymer with ethenylbenzene and 2-propenenitrile	395.15	
25750-23-6	Hexamethylenediamine-isophthalic acid-terephthalic acid copolymer	590.15	
25750-84-9	Butyl acrylate-ethylene copolymer	323.15	
25755-72-0	1-Phenyl-2-hexanol		546.15
25756-29-0	N-Methylcyclohexanemethanamine		417.15
2576-47-8	2-Bromoethylamine hydrobromide	441.15	
2576-92-3	1,2-Benzenediol, 4-[(1R,2S)-1-hydroxy-2-[(1-methylethyl)amino]butyl]-, hydrochloride (1:1), rel-	485.65	
2576-97-8	5-(4-Amino-2-hydroxyphenyl)-1,3,4-oxadiazol-2(3H)-one	478.15	
25767-47-9	Butyl acrylate-styrene copolymer	393.15	
2577-40-4	L-Phenylalanyl-L-phenylalanine	405.15	
2577-48-2	(-)-L-Proline methyl ester	424.65	
2577-72-2	Metabromsalan	410.65	
2577-90-4	L-Phenylalanine, methyl ester	405.15	
25771-65-7	8-Nitro-4-phenylquinoline	363.65	
25775-90-0	Zucapsaicin	343.15	
25776-72-1	Adipic acid-hexamethylenediamine-terephthalic acid copolymer	571.15	
25777-14-4	Butanedioic acid, polymer with 1,4-butanediol	385.65	
2578-45-2	2-Chloro-3,5-dinitropyridine	337.65	
2578-57-6	L-Prolylglycine	509.15	
2578-58-7	Histidylglycine	441.65	
2578-75-8	N-[5-(5-Nitro-2-furyl)-1,3,4-thiadiazol-2-yl]acetamide	593.15	
2578-84-9	N-[(Phenylmethoxy)carbonyl]-L-phenylalanine 4-nitrophenyl ester	399.4	
25784-91-2	2-Chloro-5-nitrobenzoyl chloride	333.65	
2579-20-6	1,3-Bis(aminomethyl)cyclohexane		493.15
2579-22-8	Phenylpropynal	412.65	
25791-20-2	Tetradecyltriphenylphosphonium bromide	370.15	
2580-58-7	Tetrahydro-5-(2-hydroxyethyl)-1,3,5-triazin-2(1H)-one	433.15	
2580-60-1	2,2′-Oxybis[acetic acid] 1,1′-dihydrazide	436.15	
2580-63-4	N-Hydroxypropanamide	365.9	
2580-71-4	Butanedial, 1,4-dioxime	371.4	
2580-77-0	β-Hydroxyethyl sulfone	331.25	
2580-80-5	N-(5-Amino-2,4-dimethylphenyl)benzamide	449.15	
25800-63-9	Tetradecahydro-1,4a-dimethyl-7-(1-methylethyl)-1-phenanthrenecarboxylic acid	439.65	
25803-14-9	Clometacin	515.15	
25804-49-3	1,1-Dimethylethyl 4-hydroxybenzoate	404.15	
25808-30-4	Acetonitrile, 2-(methylamino)-, hydrochloride (1:1)	377.15	
2581-34-2	3-Methyl-4-nitrophenol	401.15	
2581-36-4	3,3′-Methylenebis[6-hydroxy-5-methylbenzoic acid]	541.15	
2581-69-3	Disperse Orange 1	430.9	
25812-30-0	Gemfibrozil	335.15	431.65
25813-25-6	3,5-Dibromo-4-pyridinol	643.15	
2582-07-2	N-2-Benzothiazolylguanidine	445.65	
2582-16-3	2,2,5,5-Tetramethyl-4-imidazolidinethione	427.15	
2582-30-1	Aminoguanidine bicarbonate	445.15	
25823-49-8	5,6-Dihydrobenzo[h]cinnolin-3(2H)-one	536.65	
2583-25-7	2-(2-Propen-1-yl)propanedioic acid	378.15	
25832-67-1	Benzoic acid, 2-hydroxy-4-methoxy-, sodium salt (1:1)	513.65	
25834-80-4	2,4-Bis[(4-aminophenyl)methyl]benzenamine	407.15	
2584-71-6	cis-4-Hydroxy-D-proline	513.15	
25841-43-4	2-Methyl-2-(methylsulfonyl)propanoic acid	437.65	
25843-45-2	Diazene, dimethyl-, 1-oxide		371.15
25843-59-8	2-Hydrazinylpropanoic acid	455.15	
25844-12-6	3-(1,1-Dimethylethyl)-2-hydroxy-5-methylbenzenemethanol	359.65	
25850-49-1	1,3-Bis(1,2-dibromoethyl)benzene	336.9	
25852-90-8	Poly(oxy-1,2-ethanediyl), α-phenyl-ω-phenoxy-	418.15	
25853-85-4	2,6-Naphthalenedicarboxylic acid, 2,6-dimethyl ester, polymer with 1,2-ethanediol	553.15	
2586-89-2	3-Heptyne	142.65	380.35
2587-42-0	Diazene, 1,2-bis[4-(hexyloxy)phenyl]-, 1-oxide	354.15	
2587-81-7	Triethylplumbyl acetate	433.55	
2587-82-8	Tributylplumbyl acetate	359.15	
25870-67-1	1,3-Bis(4-nitrophenyl)-2-propen-1-one	458.65	
25875-50-7	Robenidine hydrochloride	562.65	
25875-51-8	Robenidine	460.65	
25876-10-2	Gentamicin C1	370.15	
25887-81-4	Sulfurous acid, bis(4-nitrophenyl) ester	359.65	
2589-00-6	Benzeneacetic acid, α-methyl-α-phenyl-, 2-(diethylamino)ethyl ester, hydrochloride (1:1)	433.65	
2589-01-7	2,4,6-Tris(2-oxiranylmethoxy)-1,3,5-triazine	379.65	
2589-15-3	1,4,5,6,7,8,8-Heptachloro-2,3,3a,4,7,7a-hexahydro-4,7-methano-1H-indene	384.15	
2589-47-1	Ajmalanium, 17,21-dihydroxy-4-propyl-, (17R,21α)-, (2R,3R)-2,3-dihydroxybutanedioate (1:1)	423.65	
2589-57-3	1,1′-Dimethyl 2,2′-(1,2-diazenediyl)bis[2-methylpropanoate]	303.15	
2589-71-1	1-(4-Hydroxyphenyl)-1-pentanone	335.65	
2589-73-3	1-(4-Hydroxyphenyl)-1-octanone	335.15	
2589-78-8	4-Hexadecylphenol	351.65	
25895-44-7	1-Hexene-propylene copolymer	370.15	
25895-47-0	1-Butene-ethylene-propylene copolymer	410.15	
25895-60-7	Sodium cyanoborohydride	458.15	
259-79-0	Biphenylene	347.9	536.25
25905-77-5	Minaprine	395.15	
25907-77-1	Acetamide, N,N′-(4,8-dibromo-9,10-dihydro-9,10-dioxo-1,5-anthracenediyl)bis-	603.15	
2591-57-3	O-Ethyl O-methyl O-(4-nitrophenyl) phosphorothioate	255.15	
2591-66-4	Phosphoramidothioic acid, O-methyl O-(2,4,5-trichlorophenyl) ester	331.15	
2591-84-6	3-Methyl-1-piperidinecarboxaldehyde	504.65	504.65
2591-86-8	1-Piperidinecarboxaldehyde	242.35	495.65
25910-57-0	4-[2-(4-Nitrophenyl)diazenyl]-1,3-benzenediamine	509.15	
25910-85-4	Quinolinium, 6-ethoxy-1-methyl-2-[2-(3-nitrophenyl)ethenyl]-, methyl sulfate (1:1)	532.65	
25912-16-7	3-(1-Pyrrolidinyl)phenol	406.65	
25913-34-2	Tinoridine hydrochloride	507.65	
25917-35-5	Hexanol		430.35
2592-05-4	1H-Indole-3-carboxaldehyde, oxime	471.65	
2592-18-9	N-tert-Butoxycarbonyl-L-threonine	353.15	
2592-95-2	1-Hydroxybenzotriazole	383.15	
2593-15-9	Etridiazole	293.05	
2593-81-9	2-Methyl-4-nitro-1H-isoindole-1,3(2H)-dione	385.65	
25935-14-2	Pyridinium, 1-(3,3,4,4,5,5,6,6,7,7,8,8,9,9,10,10,10-heptadecafluorodecyl)-, iodide (1:1)	423.15	
25938-97-0	4-Bromobenzoic acid 2-phenylhydrazide	429.15	
25939-12-2	4-Bromo-N-phenylbenzenecarbohydrazonoyl chloride	417.65	
25939-13-3	N-(4-Nitrophenyl)benzenecarbohydrazonoyl chloride	464.4	
25939-14-4	N-(2,4-Dibromophenyl)benzenecarbohydrazonoyl chloride	382.15	
25948-11-2	5-Nitro-N-propyl-2-pyridinamine	370.15	
25948-15-6	2-[Methyl(5-nitro-2-pyridinyl)amino]ethanol	360.15	
2595-05-3	1,2:5,6-Bis-O-(1-methylethylidene)-α-D-allofuranose	348.65	
2595-97-3	D-Allose	401.15	
2595-98-4	D(+)-Talose	402.15	
25951-90-0	Benzene, 1,4-dimethyl-, homopolymer	793.15	
25952-35-6	Tetrahydro-3,5-dimethyl-4H-1,3,5-oxadiazine-4-thione	385.15	
25953-17-7	4-Morpholineethanamine, N-(4-methyl-6-phenyl-3-pyridazinyl)-, hydrochloride (1:2)	455.15	
25953-19-9	Cefazolin	472.15	
25954-13-6	Fosamine ammonium	448.15	
25954-44-3	Gentianose	481.15	
2596-47-6	3-[4-(Acetyloxy)-3-methoxyphenyl]-2-propenoic acid	470.15	
25961-11-9	1-(3-Chloro-10,11-dihydro-5H-dibenz[b,f]azepin-5-yl)ethanone	399.15	
25961-89-1	Triethylene glycol monohexyl ether		425.65
25962-03-2	NK 2045	548.65	
25962-05-4	3-Ethyl-5-[(3-ethyl-2-benzoxazolinylidene)-ethylidene]rhodanine	507.15	
25962-08-7	3-Ethyl-5-(1-ethyl-4(1H)-pyridinylidene)-2-thioxo-4-thiazolidinone	507.15	
25963-47-7	4-[(4-Aminophenyl)sulfonyl]phenol	466.65	
25967-29-7	Flutoprazepam	393.15	
25968-91-6	Hydrocodone hydrochloride	355.15	
2597-03-7	Phenthoate	290.65	
2597-11-7	4,5,6,7,8,8-Hexachloro-3a,4,7,7a-tetrahydro-4,7-methano-1H-inden-1-ol	471.65	
2597-44-6	Formyl		369.15
2597-54-8	Carbamic acid, N-acetyl-, ethyl ester	349.15	
2597-56-0	2-Methoxy-4-nitrobenzoic acid	420.15	
2597-97-9	Methylmercury cyanide	355.65	
25971-63-5	Carbonic dichloride, polymer with 4,4′-(1-methylethylidene)bis[phenol]	503.65	
25973-55-1	UV 328	360.4	
25979-07-1	tert-Butyldichlorophosphine	319.65	420.15
2598-29-0	8-Acetoxyquinoline	329.15	
2598-31-4	Quinacetol	386.65	
2598-99-4	Stearyl palmitate	332.15	
25985-57-3	2-[(Aminoiminomethyl)thio]ethanesulfonic acid	512.65	
25986-77-0	Poly(octadecyl acrylate)	319.85	
2599-01-1	Cetyl myristate	320.65	
2599-11-3	Hydroxysimazine	681.15	
25990-37-8	Nimbolide	519.15	
25997-59-5	6-Bromo-2-naphthalenyl α-D-galactopyranoside	498.15	
25999-20-6	Lasalocid sodium	442.65	
25999-31-9	Lasalocid A	385.15	
260-94-6	Acridine	381.15	618.65
26000-16-8	Aconitane-4-methanol, 20-ethyl-1,6,14,16-tetramethoxy-7,8-[methylenebis(oxy)]-, 4-[2-[(3S)-3-methyl-2,5-dioxo-1-pyrrolidinyl]benzoate], (1α,6β,14α,16β)-	499.15	
26000-17-9	(+)-Lycoctonine	405.15	
26006-30-4	1,3-Benzenedicarboxylic acid, polymer with 1,4-dimethyl 1,4-benzenedicarboxylate and 1,2-ethanediol	529.15	
26007-43-2	Ethylene-norbornene copolymer	401.95	
26009-03-0	Poly[oxy(1-oxo-1,2-ethanediyl)]	502.15	
2601-07-2	(3β,5β)-3-(Acetyloxy)pregn-16-en-20-one	415.15	
2601-89-0	2,3-Dichloropropanenitrile	516.15	
2601-90-3	N-Oleoylglycine	350.65	
2601-98-1	Magnesium palmitate	394.15	
26019-17-0	N,N-Dimethyl-2-thiophenemethanamine		350.65
26021-56-7	Morpholine, benzoate (1:1)	396.15	
26027-38-3	Polyethylene glycol mono(4-nonylphenyl) ether		303.15
26028-46-6	1,1′,1′′-(1,3,5-Triazine-1,3,5(2H,4H,6H)-triyl)tris[ethanone]	370.15	
26028-65-9	5-(4-Chlorophenyl)-1,2-dihydro-3H-1,2,4-triazole-3-thione	571.15	
2603-10-3	Carbamic acid, N-phenyl-, methyl ester	320.15	
26038-62-0	Phenyzoline	376.65	
2604-45-7	2,3,5,6-Tetramethylbenzoic acid	452.65	
26040-98-2	1-Pentacosanol	345.15	
260443-89-8	4-(5-Fluoro-2-benzothiazolyl)-2-methylbenzenamine	468.65	
26049-68-3	2-Hydrazino-4-(5-nitro-2-furyl)thiazole	492.15	
26049-70-7	2-Hydrazinyl-4-(4-nitrophenyl)thiazole	494.15	
26049-94-5	(3S)-3-Benzyloxycarbonylamino-1-chloro-4-phenyl-2-butanone	383.15	
2605-67-6	Methyl (triphenylphosphoranylidene)acetate	437.15	
26050-64-6	Methyl 4-bromo-3,5-dimethoxybenzoate	392.65	
2606-85-1	2-Methylbenzo[c]phenanthrene	342.9	
26061-90-5	Ethylene-glycidyl methacrylate copolymer	357.15	
26062-94-2	Butanediol-terephthalic acid copolymer	499.15	
26063-22-9	Syndiotactic polypropylene	432.15	
2607-06-9	Diflucortolone	515.15	
2607-14-9	17α-Hydroxy-17-methylandrost-4-en-3-one	454.65	
2607-21-8	1-[4-(4-Chlorophenoxy)butyl]-4-phenylpiperazine	326.15	
2607-31-0	Ethanamine, 2-[4-(5-chloro-2-benzothiazolyl)phenoxy]-N,N-diethyl-, hydrochloride (1:1)	497.65	
26078-23-9	7-Dimethylamino-4-methyl-2-hydroxyquinoline	538.65	
26078-24-0	4,6-Dimethyl-7-(methylamino)-2H-1-benzopyran-2-one	469.15	
2608-48-2	5-(4-Nitrophenyl)-2,4-pentadienal	378.65	
26085-02-9	Poly[nitrilo(dichlorophosphoranylidyne)]	511.15	
26086-49-7	Deoxydihydrostreptomycin	465.65	
26087-47-8	Iprobenfos		399.15
26088-79-9	N-[4-(2,2-Dicyanoethenyl)phenyl]acetamide	509.15	
2609-46-3	Amiloride	514.15	
26091-73-6	(-)-Oxypeucedanin	413.65	
26093-31-2	7-Amino-4-methylcoumarin	499.15	
26097-80-3	Cambendazole	486.15	
26098-04-4	Gentamicin C1a	388.65	
26098-55-5	Dodecanedioic acid-hexamethylenediamine copolymer	488.15	
26099-71-8	Poly(oxy-1,4-phenylenecarbonyl)	462.65	
261-31-4	Thioxanthene	401.65	614.15
261-96-1	10H-Pyrido[3,2-b][1,4]benzothiazine	388.15	
2610-11-9	Direct Red 81	513.15	
26100-51-6	(±)-Poly(lactic acid)	446.15	
26103-08-2	2-(Difluoromethoxy)-1,1,1,3,3,3-hexafluoropropane		315.25
26106-63-8	Tetrahydrofuran-2,3,4,5-tetracarboxylic acid	481.15	
2611-61-2	Thiamphenicol glycinate hydrochloride	457.65	
2611-67-8	Cyanidin 3,5-diglucoside	476.65	
26110-32-7	N-[5-[[4-[2,4-Bis(1,1-dimethylpropyl)phenoxy]-1-oxobutyl]amino]-2-chlorophenyl]-4,4-dimethyl-3-oxopentanamide	330.65	
26116-56-3	Erythromycylamine	388.15	
2612-02-4	5-Methoxysalicylic acid	418.65	
2612-32-0	2-Cyclohexyl-1,3-propanediol	362.65	
2612-33-1	Clonitrate		465.65
2612-57-9	2,4-Dichlorophenyl isocyanate	334.15	
26124-68-5	Glycolic acid polymer	483.15	
26125-40-6	p-Dichlorobenzene-sodium sulfide copolymer	556.15	
2613-72-1	rel-(1R,2S)-1,2,4-Trimethylcyclopentane	140.85	389.95
2613-89-0	Phenylmalonic acid	464.15	
26134-62-3	Lithium nitride	1086.15	
26138-64-7	3-Acetyl-2,4-dihydroxyquinoline	528.65	
26140-60-3	Triphenyl	483.65	
26140-67-0	1H-Pyrrole-2,5-dione, 1,1′-(methylenedi-4,1-phenylene)bis-, polymer with 4,4′-methylenebis[benzenamine]	376.15	
26148-68-5	2-Amino-9H-pyrido[2,3-b]indole	475.15	
2615-11-4	1,1′-(Oxydi-4,1-phenylene)bis[ethanone]	373.65	
2615-15-8	Hexaethylene glycol	279.15	490.15
2615-25-0	trans-1,4-Diaminocyclohexane	532.15	
26153-38-8	3,5-Dihydroxybenzaldehyde	418.65	
26158-81-6	2-[(1-Oxohexadecyl)oxy]ethyl octadecanoate	338.15	
26159-34-2	Naproxen sodium	518.15	
26159-35-3	(+)-Naproxen methyl ester	360.15	
2616-16-2	(16α,19E)-1-Acetyl-19,20-didehydrocuran-17-ol	440.65	
2616-70-8	Methyl (3α,5β,6α,7α)-3,6,7-tris(acetyloxy)cholan-24-oate	462.15	
26164-26-1	(+)-Methoxyphenylacetic acid	338.65	
26166-37-0	Denudatine	521.65	
26166-39-2	3-Chloro-4,6-dihydroxy-2-methyl-5-[(2E,4E)-3-methyl-5-[(1R,2R,6R)-1,2,6-trimethyl-3-oxocyclohexyl]-2,4-pentadien-1-yl]benzaldehyde	446.15	
2617-47-2	(Hydroxymethyl)phosphonate	358.4	
2617-78-9	N-(4-Bromophenyl)formamide	392.15	
2617-79-0	N-(4-Chlorophenyl)formamide	377.15	
26171-05-1	1-Methyl-2-(nitromethylene)pyrrolidine	427.15	
26171-06-2	1-Methyl-2-pyrrolidinemethanamine		425.65
26171-23-3	Tolmetin	429.15	
26171-78-8	(-)-Menthyl phenylacetate	319.65	
26172-55-4	5-Chloro-2-methyl-4-isothiazolin-3-one	325.15	
26177-43-5	Benzenemethanamine, 3-nitro-, hydrochloride (1:1)	499.15	
26177-44-6	4-Bromobenzylamine hydrochloride	541.65	
2618-25-9	Ioglycamic acid	499.15	
2618-38-4	Benzoic acid, 2-(diethylamino)ethyl ester, hydrochloride (1:1)	398.85	
2618-96-4	N-(Phenylsulfonyl)benzenesulfonamide	543.15	
26180-28-9	3-(2,5-Dimethyl-1H-pyrrol-1-yl)benzoic acid	419.15	
26186-00-5	1-Heptadecyne	299.15	
26186-02-7	1-Tridecyne	275.65	