CAS	name	Tm	Tb
106000-20-8	1,5-Dimethyl-1H-indole-2,3-dione 3-oxime	485.65	
106012-56-0	Imidazo[1,2-a]pyrimidine-3-carboxaldehyde	443.15	
106014-21-5	2,5-Dimethyl 3-chloro-2,5-pyridinedicarboxylate	399.65	
106020-49-9	6-(4-Fluorophenyl)-1,2-dihydro-2-oxo-4-phenyl-3-pyridinecarbonitrile	565.65	
106047-18-1	2-(4-Pyridinyl)benzenamine	358.65	
106047-29-4	6-Bromo-2,4′-bipyridine	375.15	
106047-34-1	3,2′:5′,4′′-Terpyridine	414.65	
10605-18-2	N1-Methyl-N2-phenylethanediamide	460.15	
10606-14-1	6-Amino-2-oxohexanoic acid	488.65	
1060717-89-6	5-Methoxy-1H-pyrrolo[3,2-b]pyridine-3-acetonitrile	365.15	
106073-01-2	6,7,8,9-Tetrahydro-5-methoxy-2-(5-methyl-1,2,4-oxadiazol-3-yl)imidazo[1,2-a]quinazoline	493.15	
106100-65-6	6-Ethyl-7-methoxy-5-methyl-2-(5-methyl-1,2,4-oxadiazol-3-yl)imidazo[1,2-a]pyrimidine	449.65	
106110-61-6	1-[2-(Diethylamino)ethyl]-1H-indole-2,3-dione	378.5	
106110-71-8	2-(2-Chlorophenyl)-1,3(2H,4H)-isoquinolinedione	384.15	
106129-87-7	3-(4-Chloro-2H-1-benzopyran-2-yl)-4H-1-benzopyran-4-one	411.15	
106138-88-9	(+)-Tamsulosin	502.15	
106147-85-7	4-(Chloromethyl)-5-methyl-1-(triphenylmethyl)-1H-imidazole	407.15	
106182-18-7	2-Stearoyl-3-glycerylphosphorylethanolamine	488.65	
1062-07-3	11H,13H-Oxireno[d]pyrano[4′,3′:3,3a]isobenzofuro[5,4-f][2]benzopyran-4,6,13(2H,5aH)-trione, decahydro-2,2,4a,8a-tetramethyl-8-(tetrahydro-3-furanyl)-, (2aR,4aR,4bR,5aS,8S,8aS,10aR,10bR,14aS)-	581.15	
1062-09-5	(11β,16β)-17,21-[(1-Ethoxypropylidene)bis(oxy)]-9-fluoro-11-hydroxy-16-methylpregna-1,4-diene-3,20-dione	481.65	
106202-40-8	2(3H)-Furanone, 3-(ethoxymethylene)dihydro-, (E)-	328.65	
106244-76-2	Ethyl 4-(aminomethyl)-4-hydroxy-1-piperidinecarboxylate	355.15	
1062584-14-8	rel-(3aR,4R,9bR)-8-Fluoro-4-(2-furanyl)-2,3,3a,4,5,9b-hexahydrofuro[3,2-c]quinoline	374.65	
106266-09-5	Desfluororisperidone	456.25	
106308-44-5	Rufinamide	509.65	
106343-08-2	2,5-Furandione, polymer with ethene, graft	408.15	
106363-02-4	6-(4-Chlorophenyl)-7H-1,2,4-triazolo[3,4-b][1,3,4]thiadiazine-7-acetic acid	454.15	
106366-28-3	3-(2-Pyrrolidinylmethyl)pyridine	401.4	
1064-50-2	[1,1′:3′,1′′-Terphenyl]-3,3′′,5′-tripropanoic acid, α,α′,α′′-triamino-2′,6,6′′-trihydroxy-, (αS,α′S,α′′S)-	426.4	
106412-36-6	N-tert-Butoxycarbonylhexahydro-2H-azepin-2-one	309.15	
106429-58-7	1,3-Dihydro-5-(hydroxymethyl)-2H-benzimidazol-2-one	511.35	
106454-60-8	(4α)-18-Hydroxykauran-17-oic acid	478.15	
106473-11-4	m-Cresol, 2,2′-methylenebis[4,6-dichloro-	426.15	
106518-63-2	Ganodermanontriol	419.15	
106536-49-6	Piperidine, 1-(2-bromoethyl)-, hydrochloride (1:1)	501.15	
1065483-60-4	2-Bromo-1-(tetrahydro-2H-pyran-2-yl)-1H-imidazole	314.15	
106551-77-3	1,2,5,6,7,8-Hexahydro-7-methyl-2,5-dioxo-3-quinolinecarboxylic acid	540.15	
106551-83-1	7,8-Dihydro-7-phenyl-2,5(1H,6H)-quinolinedione	548.15	
106556-67-6	Ethyl 4-bromo-2,3-dihydro-2,2-dimethyl-3-oxo-1H-pyrrole-1-carboxylate	366.15	
106561-30-2	5,6-Dimethylfuro[2,3-d]pyrimidin-4(3H)-one	491.65	
106577-39-3	Hederacolchiside A1	527.15	
106578-02-3	3-(2-Methyl-4-thiazolyl)-2H-1-benzopyran-2-one	459.15	
106584-14-9	2-(2-Furanyl)phenol	313.65	
106589-19-9	1-Methyl 2-iodo-1,3-benzenedicarboxylate	323.15	
106589-22-4	3-Cyano-2-iodobenzoic acid	551.15	
106593-38-8	3-Chloro-N-2-propen-1-ylpropanamide	322.65	
106610-60-0	3′-Hydroxy-4′-methoxydiclofenac	447.15	
106614-28-2	Benzoic acid, 2,4-difluoro-, methyl ester		465.15
106649-32-5	1-[(1-Methylethyl)phenylphosphinyl]methanol	378.4	
106656-86-4	1-(1H-Inden-4-yloxy)-3-[(1-methylethyl)amino]-2-propanol	378.15	
106685-41-0	Methyl 6-(4-methoxy-3-tricyclo[3.3.1.13,7]dec-1-ylphenyl)-2-naphthalenecarboxylate	494.65	
106690-54-4	2-[(4-Chlorophenyl)methyl]-4(3H)-pyrimidinone	497.15	
106690-56-6	2-(3-Chlorophenyl)-4(3H)-pyrimidinone	486.15	
106691-36-5	3,4-Dihydro-3-oxo-N-2-propen-1-yl-2H-1,4-benzothiazine-2-acetamide	496.65	
106691-39-8	N-(2-Chlorophenyl)-3,4-dihydro-3-oxo-2H-1,4-benzothiazine-2-acetamide	510.15	
106726-94-7	2-Methyl-4-phenyl-2,3-butadien-1-ol	341.15	
106740-09-4	Phosphinodithioic acid, P-(4-methoxyphenyl)-P-4-morpholinyl-, compd. with morpholine (1:1)	438.15	
106750-89-4	11,12-Bis(chloromethyl)-9,10-dihydro-9,10-ethanoanthracene	418.65	
106778-43-2	6-Isoquinolinecarboxylic acid	630.65	
1067883-58-2	2-[2-(Dicyclohexylphosphino)phenyl]-1-methyl-1H-indole	446.55	
106791-94-0	2-Amino-5-fluoro-6-phenyl-4(3H)-pyrimidinone	550.15	
106833-80-1	2-(2-Thienyl)-5-oxazolecarboxylic acid	520.65	
106882-30-8	[4-(Acetyloxy)phenyl]-2-thienylmethanone	361.65	
106882-31-9	2-Picoline, 4,4′-azodi-, 1,1′-dioxide	497.65	
106887-14-3	1-Hydroxy-6-methyl-5-phenyl-2(1H)-pyrazinone	459.65	
1069-82-5	1,1′-[(1R)-1-(Hydroxymethyl)-1,2-ethanediyl] ditetradecanoate	331.65	
106910-77-4	N-(Phenylmethyl)-D-serine	509.15	
106916-80-7	N,N′-Bis(4-bromo-2-methylphenyl)guanidine	482.65	
106928-30-7	(-)-Hapalindole U	514.15	
106944-55-2	O-Ethyl 2-oxo-2H-1-benzopyran-3-carbothioate	365.15	
106949-29-5	3-Buten-2-one, 4-(4-acetylphenyl)-	378.65	
106967-42-4	4-Bromo-2,6-bis(bromomethyl)pyridine	398.65	
106973-37-9	(3S)-5-Oxo-4-(phenylmethyl)-3-morpholinecarboxylic acid	452.65	
106984-91-2	6-Oxo-1,6-dihydropyridine-3-carboxaldehyde	494.4	
106989-11-1	Poly[(+)-lactic acid]	427.15	
107-38-0	2-Arsonoacetic acid	425.15	
1070-06-0	16-Hentriacontanone, oxime	332.15	
1070-95-7	Guanoctine hydrochloride	463.15	
107000-34-0	Zanoterone	474.15	
107018-39-3	Ethyl 3,3,3-trifluoro-2-hydroxy-2-methylpropanoate		333.15
107027-43-0	2-(4-Chlorophenyl)-8-methyl-4-quinolinecarboxylic acid	520.15	
107027-47-4	2-(4-Methoxyphenyl)-8-methyl-4-quinolinecarboxylic acid	506.65	
1070377-34-2	4-[[6-Chloro-2-[(4-cyanophenyl)amino]-4-pyrimidinyl]oxy]-3,5-dimethylbenzonitrile	552.65	
107047-28-9	4-[2,4-Bis(1,1-dimethylpropyl)phenoxy]-N-[4-[4,5-dihydro-4-[[1-(4-hydroxyphenyl)-1H-tetrazol-5-yl]thio]-5-oxo-3-(1-pyrrolidinyl)-1H-pyrazol-1-yl]phenyl]butanamide	458.65	
1070663-78-3	Dicyclohexyl[3,6-dimethoxy-2′,4′,6′-tris(1-methylethyl)[1,1′-biphenyl]-2-yl]phosphine	465.15	
107073-28-9	3-(1H-Pyrrol-1-yl)-2-thiophenecarboxaldehyde	373.15	
1071-38-1	Methanaminium, (dimethylamino)dimethyl-, chloride (1:1)	416.4	
1071-99-4	1-Propanethiol, 3-(aminooxy)-, hydrochloride (1:1)	387.65	
107108-25-8	2-Methyl-4-nitro-1-[(4-nitrophenyl)methyl]-1H-imidazole	453.65	
107134-82-7	1,1′-(1,3-Phenylene)bis[1,1-dibromoborane]	367.65	
107140-31-8	L-Tyrosine, 3-hydroxy-L-tyrosyl-L-asparaginyl-, cyclic (13→3)-ether	483.65	
107144-30-9	4-(4,4-Dimethyl-3-oxo-1-pyrazolidinyl)benzoic acid	512.65	
107144-43-4	1-Acetyl-5-bromo-2,3-dihydro-N-methyl-1H-indole-6-sulfonamide	492.4	
1071550-53-2	1H-Pyrazole-1-ethanamine, N,N-dimethyl-, hydrochloride (1:2)	408.15	
1071588-99-2	1,2,3,4-Tetrahydro-2,3-dioxo-5-quinoxalinecarbonyl chloride	387.15	
1071634-39-3	4,4′-Bipiperidine, 1-methyl-, hydrochloride (1:2)	580.15	
107165-84-4	1-(4-Methoxyphenyl)-2-(tetrahydro-2(1H)-pyrimidinylidene)ethanone	480.15	
1072-11-3	2,2′-Dithiobis[N,N-dimethylethanamine]		505.65
1072-12-4	Glyoxal dithiosemicarbazone	525.15	
1072-96-4	4-Ethenyl-1,3-dioxane		415.65
107202-41-5	1,1-Dimethylethyl N-[(1S)-1-ethenyl-3-methylbutyl]carbamate	320.15	
107256-99-5	Ethanaminium, 2-[4-[(1Z)-1,2-diphenyl-1-buten-1-yl]phenoxy]-N,N,N-trimethyl-, iodide (1:1)	522.15	
107259-05-2	1-(tert-Butoxycarbonylamino)cyclopropanecarboxylic acid ethyl ester	318.15	
107259-49-4	1,3-Dihydroxy-2,5,6-trimethoxy-10-methyl-9(10H)-acridinone	429.65	
107264-09-5	Pyridinium, 1-fluoro-, tetrafluoroborate(1-) (1:1)	363.65	
107269-72-7	5-(Chloromethyl)-1-(4-nitrophenyl)-1H-tetrazole	393.65	
107285-30-3	3-[2-(3-Chlorophenyl)ethyl]-N-(1,1-dimethylethyl)-2-pyridinecarboxamide	318.65	
107289-20-3	(2R)-2-(1,1-Dimethylethyl)-6-methyl-4H-1,3-dioxin-4-one	321.65	
1072945-09-5	4,4,5,5-Tetramethyl-2-[2-(methylthio)phenyl]-1,3,2-dioxaborolane	351.2	
1072952-23-8	2-Borono-3-furancarboxylic acid	428.15	
1073-22-9	2-Amino-3-methyl-4(3H)-pyrimidinethione	506.65	
1073-38-7	2-Mercapto-2,4,6-cycloheptatrien-1-one	328.15	
1073-54-7	4-(Methylthio)-2-pyrimidinamine	426.15	
1073-80-9	2,6-Dimethyl-4H-thiopyran-4-one	377.15	
1073354-10-5	2,2-Dimethyl-N-[2-(4,4,5,5-tetramethyl-1,3,2-dioxaborolan-2-yl)phenyl]propanamide	371.95	
107351-83-7	N-Methyl-5-phenyl-2-pyridinamine	394.15	
1073539-20-4	6-(2-Propen-1-ylamino)-2H-1-benzopyran-2-one	362.15	
107361-61-5	2-(Dimethylamino)-4-phenyl-5-pyrimidinol	416.65	
107390-08-9	Garcinone D	476.15	
1074-38-0	5-Methyl-2-nitropyridine	367.65	
1074-45-9	6-Methyl-4-pyrimidinecarboxaldehyde oxime	423.15	
1074-49-3	5-Bromo-N2-methyl-2,4-pyrimidinediamine	393.65	
1074-68-6	2-(Methylthio)-4-pyrimidinecarboxaldehyde	341.15	
1074-76-6	2,4-Dimethyl-3-nitropyridine	282.65	
1074-81-3	2-(Dimethylamino)-3-methyl-4(3H)-pyrimidinethione	348.65	
1074-87-9	1H-Indole-7-methanol	328.65	
1074-93-7	3-Pyridinecarboxylic acid, 4-chloro-, 1-oxide	442.65	
1074-99-3	2,4-Dimethyl-5-nitropyridine	293.65	
107401-75-2	[4-Amino-2-(ethylamino)-5-thiazolyl]phenylmethanone	452.15	
107416-50-2	1-Piperidineacetic acid, α-phenyl-, hydrochloride (1:1)	518.15	
107445-22-7	(1E)-1-(4-Pyridinyl)ethanone O-[(4-methylphenyl)sulfonyl]oxime	354.15	
107447-06-3	1H-Pyrido[3,4-b]indole-3-carboxylic acid, 2,3,4,9-tetrahydro-7-methoxy-1-(2-methylpropyl)-, methyl ester, (1R-trans)-	425.4	
107465-26-9	7-Bromo[1,2,3]triazolo[1,5-a]pyridine	368.4	
1075-09-8	4-(Methylamino)-3-pyridinecarboxylic acid	548.15	
1075-39-4	6-Chloro-N2,N2-dimethyl-2,4-pyrimidinediamine	424.15	
1075-83-8	7-Methyl-2-azaspiro[4.4]nonane-1,3-dione	369.65	
107534-93-0	Macelignan	344.15	
107550-74-3	(2S,5R)-5-(2-Amino-9H-purin-9-yl)tetrahydro-2-furanmethanol	441.65	
107558-95-2	3-Nitro-2-(phenylmethoxy)benzoic acid	402.65	
107559-06-8	4-(2-Pyridinylmethyl)-1(2H)-phthalazinone	453.65	
107585-77-3	2,3-Dihydro-5,7-dihydroxy-3-[(4-hydroxyphenyl)methyl]-4H-1-benzopyran-4-one	436.15	
1076-78-4	Bicyclo[4.2.0]octa-1,3,5-triene-7-methanamine, 4-methoxy-, hydrochloride (1:1)	439.15	
1076-99-9	4-(2-Propen-1-yl)benzoic acid	377.65	
107610-63-9	4-Methyl-5-oxo-3-pyrrolidinecarboxamide	443.15	
107622-08-2	2′,6-Dimethyl[1,1′-biphenyl]-3-amine	321.15	
107649-71-8	Methyl 2-(hydroxyimino)-3-oxooctadecanoate	322.15	
107651-37-6	Methyl α-[(phenylsulfonyl)amino]-α-(trifluoromethyl)-1H-indole-3-acetate	483.15	
1077-25-4	4-(Butylthio)phenol	309.65	
1077-27-6	(S)-Thioctic acid	319.4	
1077-96-9	5-Fluoro-1H-indazole-3-carboxylic acid	572.15	
107737-91-7	2-[(2,5-Dichlorophenyl)sulfonyl]ethanol	407.15	
107740-46-5	Isorhamnetin 3-O-robinoside	457.65	
107752-86-3	Ethyl 2-amino-4-(3-fluorophenyl)-5,6,7,8-tetrahydro-5-oxo-4H-1-benzopyran-3-carboxylate	451.65	
107752-90-9	2-Amino-4-(3-fluorophenyl)-5,6,7,8-tetrahydro-5-oxo-4H-1-benzopyran-3-carbonitrile	511.65	
107752-99-8	2-Amino-4-(4-fluorophenyl)-5,6,7,8-tetrahydro-7,7-dimethyl-5-oxo-4H-1-benzopyran-3-carbonitrile	466.15	
107754-15-4	Methyl 3-methoxy-4-[(1-methyl-5-nitro-1H-indol-3-yl)methyl]benzoate	422.65	
107786-36-7	Methyl 3-methoxy-4-[(5-nitro-1H-indol-3-yl)methyl]benzoate	435.15	
1078-20-2	Pyridine, 3-(1-piperidinyl)-, 1-oxide	359.65	
1078-26-8	7-Isoquinolinol, 1,2,3,4-tetrahydro-6-methoxy-, hydrochloride (1:1)	521.15	
1078-39-3	4-Pyridinecarboxylic acid, 2-(2-hydroxyethyl)hydrazide	375.65	
107816-72-8	3-Formyl-6-methoxycarbazole	408.65	
1078160-91-4	4,6,8-Trimethoxyquinoline	388.65	
107817-60-7	4,9-Dihydroxy-6,7-dimethoxynaphtho[2,3-d]-1,3-dioxole-5,8-dione	460.15	
107825-97-8	5-Chloro-2-(5-isoxazolyl)phenol	487.65	
107879-46-9	N2-Methyl-1H-benzimidazole-1,2-diamine	446.65	
1079-35-2	N-Cyclopropyl-1H-indole-7-methanamine	341.15	
1079-46-5	1H-Indazole-3-carboxylic acid, 5-chloro-, methyl ester	480.15	
1079-47-6	1H-Indazole-3-carboxylic acid, 5-iodo-, methyl ester	537.15	
1079-72-7	2,3,4,5-Tetrahydro-6-(4-methylphenyl)-3-pyridazinone	428.15	
107932-98-9	Ethyl 3H-imidazo[4,5-b]pyridine-2-acetate	432.15	
107971-35-7	Dihydro-4-[[(4-methylphenyl)sulfonyl]oxy]-2(3H)-furanone	383.65	
108-25-8	Isopropyl xanthate	444.15	
108-81-6	2-Ethyl-4-methylpentanoic acid		487.65
1080-07-5	3-(3-Bromo-4-methoxyphenyl)-2-propenoic acid	515.15	
1080-95-1	2-Methyl-N,N-dimethyltryptamine	367.15	
108050-26-6	(3S,3aR,6S,6aR,7E,10S,12R,13E,15R,15aR)-2,3,3a,6,6a,9,10,11,12,15-Decahydro-6,12,15-trihydroxy-4,5,10,12-tetramethyl-3-(phenylmethyl)-1H-cycloundec[d]isoindol-1-one	444.15	
108050-27-7	(3S,3aR,4S,5S,6S,6aR,7E,10S,12R,13E,15R,15aR)-15-(Acetyloxy)-2,3,3a,4,5,6,6a,9,10,11,12,15-dodecahydro-5,6,12-trihydroxy-4,5,10,12-tetramethyl-3-(phenylmethyl)-1H-cycloundec[d]isoindol-1-one	390.65	
108050-28-8	(3S,3aR,6S,6aR,7E,10S,12R,13E,15R,15aR)-15-(Acetyloxy)-2,3,3a,6,6a,9,10,11,12,15-decahydro-6,12-dihydroxy-4,5,10,12-tetramethyl-3-(phenylmethyl)-1H-cycloundec[d]isoindol-1-one	526.65	
1081-05-6	Ethyl 5-chloro-1H-indazole-3-carboxylate	496.15	
1081-10-3	5,6,7,8-Tetrahydro-6,8-dimethyl-2-(methylthio)pyrido[4,3-d]pyrimidin-4(3H)-one	485.15	
1081-28-3	2-Phenyl-1H-imidazo[4,5-d]pyridazine	604.15	
1081-71-6	Vanilpyruvic acid	434.15	
108102-51-8	Fumagillol	328.15	
108114-94-9	Pyridine, 4-(3-nitrophenyl)-, nitrate (1:1)	488.15	
1081536-87-9	Formaldehyde, 2-(4,5-dihydro-4-oxo-2-thiazolyl)hydrazone	623.15	
108168-90-7	Benzeneethanimidamide, 4-methyl-, hydrochloride (1:1)	426.15	
1081809-78-0	2-Chloro-4-methyl-5-nitrobenzenamine	431.65	
1082040-46-7	Phenol, 3-bromo-5-chloro-2-methyl-	321.15	
108238-10-4	2-(Bromomethyl)-1-methylnaphthalene	342.65	
108241-00-5	2-[2-[4-(1,1,3,3-Tetramethylbutyl)phenoxy]ethoxy]acetic acid	354.15	
1082604-63-4	4-(6-Chloroimidazo[1,2-b]pyridazin-3-yl)benzonitrile	487.15	
108262-25-5	4-Nitro-1,4′-bi-1H-pyrazole	465.65	
108282-38-8	4-Amino-5-chloro-2-ethoxybenzoic acid	440.65	
1083-02-9	6-Methyl-2-phenyl-4-pyrimidinecarboxaldehyde oxime	438.65	
1083-10-9	3,4-Dihydro-6,7-dimethyl-3-oxo-2-quinoxalinecarboxylic acid	562.65	
1083-11-0	2,5-Dimethoxybenzenebutanoic acid	339.55	
1083-58-5	4-[2-(5-Nitro-2-furanyl)ethenyl]pyrimidine	496.15	
108306-57-6	2-(Trimethylsilyl)-5-(trimethylstannyl)thiazole	349.15	
108306-62-3	2,5-Diiodothiazole	383.15	
108310-20-9	1-Phenyl-3-(1-pyrrolidinyl)-1,8-naphthyridine-2,4(1H,3H)-dione	556.15	
1083171-75-8	2-[[(1,1-Dimethylethyl)oxidoimino]methyl]-3,5,6-trimethylpyrazine	342.15	
1083178-02-2	Estra-1,3,5(10)-triene-3,17-diol, 17-(2-furancarboxylate), (17β)-	443.15	
1083181-41-2	4-Bromo-2(3H)-benzothiazolethione	457.65	
108342-86-5	β-D-Galactopyranosyl azide, 2,3,4,6-tetrakis(2,2-dimethylpropanoate)	365.15	
108347-25-7	1-Oxo-1H-indene-4,5-dicarboxylic acid	408.15	
108351-91-3	4-[1,2,5,6-Tetrahydro-1-(2-propen-1-yl)-3-pyridinyl]-2-thiazolamine	403.65	
1084-27-1	2,3,4,5,6,7,8-Heptachloroquinoline	424.15	
1084-96-4	2,5-Bis(acetyloxy)benzoic acid	393.15	
108413-55-4	5-(3-Methoxyphenyl)-1,3,4-oxadiazole-2(3H)-thione	461.65	
108438-52-4	2-Bromo-3-chloro-1H-indole	366.15	
108446-73-7	3-[3-(4-Bromophenyl)-1-phenyl-1H-pyrazol-4-yl]-2-propenoic acid	511.65	
108446-74-8	3-[3-(4-Methylphenyl)-1-phenyl-1H-pyrazol-4-yl]-2-propenoic acid	493.65	
108446-77-1	1,3-Diphenyl-1H-pyrazole-4-propanoic acid	414.65	
108461-05-8	1-Cyclopropyl-6-fluoro-1,4-dihydro-7-(8-methyl-3,8-diazabicyclo[3.2.1]oct-3-yl)-4-oxo-3-quinolinecarboxylic acid	551.65	
108475-90-7	2-[(2-Methylphenoxy)methyl]benzoic acid	424.15	
108484-96-4	N4,N4-Diethyl-4,6-pyrimidinediamine	481.15	
108511-98-4	4-Isoxazolamine, hydrochloride (1:1)	434.65	
108512-04-5	4-Isoxazolamine, 3-methyl-, hydrochloride (1:1)	422.15	
108527-83-9	Benzothiazolium, 2-[3-(1,3-dihydro-1,3,3-trimethyl-2H-indol-2-ylidene)-1-propen-1-yl]-3-ethyl-, iodide (1:1)	459.65	
108530-09-2	4-Methyl-2-quinolinyl 1,1,1-trifluoromethanesulfonate	345.15	
108545-01-3	2,6-Dichloro-4-hydroxy-3-methoxybenzaldehyde	412.65	
1086062-66-9	Omipalisib	461.15	
1086375-47-4	5,6,7,8-Tetrahydro-7,7-dimethyl-5-oxo-3-quinolinecarboxylic acid	488.65	
1086409-82-6	(3R,5aS,6R,8aS,9R,12R,12aR)-Decahydro-11-hydroxy-3,6,9-trimethyl-3,12-epoxy-1,2-dioxepino[4,3-i]isoquinolin-10(3H)-one	439.15	
108665-95-8	3-Methyl-2-(phenylsulfonyl)-1H-indole	442.15	
1087-30-5	N-(3,4-Dichlorophenyl)-3-hydroxy-2-pyridinecarboxamide	462.15	
108714-74-5	N,N-Dimethyl-9H-fluoren-3-amine	335.65	
108723-23-5	N-2H-Tetrazol-5-ylpropanamide	538.15	
108724-10-3	7-Bromothiazolo[4,5-c]pyridine-2(3H)-thione	500.15	
1087712-13-7	β-L-Ribopyranoside, methyl 3-(acetylamino)-3-deoxy-, 2,4-diacetate	389.65	
108772-95-8	2-Chloro-3-nitrobenzeneacetonitrile	389.775	
108773-05-3	2,2,2-Trifluoro-N-[2-(2-hydroxy-3-nitrophenyl)ethyl]acetamide	393.15	
1087730-30-0	Piperidine, 2,3-dimethyl-, hydrochloride (1:1)	519.65	
1087743-89-2	1,2-Benzenediamine, 4-chloro-3-methyl-, hydrochloride (1:1)	536.15	
1087747-62-3	4-Methylbenzo[b]thiophene-2-carboxamide	420.9	
1087751-63-0	2-Quinolinepropanoic acid, α-amino-, hydrochloride (1:2), (αS)-	487.15	
108784-44-7	6-Fluoro-3-methoxy-2-phenylimidazo[1,2-b]pyridazine	403.4	
108793-14-2	1,9-Decadiene, homopolymer	315.65	
1088-12-6	1-Amino-6,7-difluoro-9,10-anthracenedione	501.3	
108825-21-4	6-(Phenylmethoxy)quinoline	391.15	
108853-14-1	Moscatilin	355.65	
108897-27-4	2-Methyl-1-(2-phenylethyl)-4-piperidinone	349.15	
1088987-97-6	4-Bromo-1,2-dihydro-1-(4-methylphenyl)-2-oxo-3-pyridinecarboxaldehyde	435.65	
1089-78-7	Prenortestosterone	471.65	
1089-80-1	9-Dehydroestrone	531.15	
108907-43-3	(-)-Epiafzelechin 3-O-gallate	516.15	
108907-44-4	Epicatechin-3-O-(4-O-methyl)gallate	522.15	
108909-02-0	Confusarin	464.65	
108912-10-3	4-(3-Thienyl)benzeneacetonitrile	398.15	
108963-96-8	1-(1,1-Dimethylethyl) 2-methyl (2S)-5-oxo-1,2-pyrrolidinedicarboxylate	341.15	
1089695-63-5	rel-(1R,3S)-3-[(Phenylmethyl)amino]cyclohexanol	428.15	
1089719-75-4	(αS)-α-Methyl-1H-indole-6-ethanamine	440.15	
108998-83-0	(2S)-1,1,2-Triphenyl-1,2-ethanediol	400.65	
109-03-5	1,4-Oxathiane, 4-oxide	317.9	
1090-01-3	Androstan-15-ol, (5α,15α)-	435.15	
1090-04-6	(16α)-Estra-1,3,5(10)-triene-3,16-diol	497.4	
109012-24-0	1-Methyl-4-nitro-1H-imidazole-2-carboxylic acid	408.65	
109018-79-3	N,N′-(2,5-Dichloro-3,6-dioxo-1,4-cyclohexadiene-1,4-diyl)bis[propanamide]	526.15	
109029-96-1	2-Chloro-5-(4-morpholinylsulfonyl)benzoic acid	365.15	
109029-99-4	4-Chloro-3-[[(4-methoxyphenyl)amino]sulfonyl]benzoic acid	474.15	
109041-28-3	Pyridinium, 4-(aminocarbonyl)-1-(2,4-dinitrophenyl)-, chloride (1:1)	507.65	
109060-66-4	5-(3-Bromophenyl)-1,3,4-oxadiazol-2-amine	348.65	
109060-71-1	5-(2-Nitrophenyl)-1,3,4-oxadiazol-2-amine	345.15	
109089-77-2	2-Methoxy-5-methyl-β-phenylbenzenepropanoic acid	409.65	
1091-86-7	1-[(3-Nitrophenyl)sulfonyl]-1H-benzotriazole	434.65	
109139-27-7	Sulfoximine, N-chloro-S-(4-chlorophenyl)-S-(trifluoromethyl)-	326.65	
109152-87-6	2-Cyclopentyl-4,5-dihydro-1H-imidazole	367.65	
1091606-67-5	(αS,βS)-β-(Diphenylphosphino)-α-phenylbenzeneethanamine	567.65	
1091606-69-7	(1S,2S)-2-(Diphenylphosphino)-2,3-dihydro-1H-inden-1-amine	413.15	
1092-04-2	2α-Methyl-19-nortestosterone	450.15	
1092-70-2	1,1′-Dimethyl 4,4′-methylenebis[benzoate]	353.65	
1092064-04-4	(αS,βS,11bS)-3,5-Dihydro-α-methyl-β-phenyl-4H-dinaphtho[2,1-c:1′,2′-e]phosphepin-4-ethanamine	409.65	
109226-90-6	2H-1,4-Benzoxazine, 3-(methylthio)-6-nitro-	409.15	
1092400-80-0	4-[5-(Thiocyanatomethyl)-1,2,4-oxadiazol-3-yl]benzoic acid	515.15	
1092400-83-3	3-[5-(Chloromethyl)-1,2,4-oxadiazol-3-yl]benzoic acid	403.15	
1092443-55-4	(2S,3S)-3-[[3-(1-Methylethyl)-7-[(phenylmethyl)amino]pyrazolo[1,5-a]pyrimidin-5-yl]amino]-1,2,4-butanetriol	458.15	
1092443-98-5	5-Chloro-3-(1-methylethyl)-N-(phenylmethyl)pyrazolo[1,5-a]pyrimidin-7-amine	351.65	
1092579-96-8	4-(Trifluoromethyl)-1H-pyrrolo[2,3-b]pyridine	453.65	
109273-58-7	4-(4-Bromophenyl)-1,2-dihydro-6-methyl-2-oxo-3-pyridinecarbonitrile	587.65	
109274-92-2	Furo[2,3-b]pyridine-2-carboxaldehyde	409.9	
1093-99-8	Estr-4-en-3-one, 17-hydroxy-2,17-dimethyl-, (2α,17β)-	395.15	
109306-89-0	5-Phenyl-1,3,2-dioxaborinane-4,6-dione	433.15	
1093239-78-1	6-Nitroimidazo[1,2-a]pyridine-5-carboxaldehyde	399.65	
109333-27-9	2-(Mercaptomethyl)pentanedioic acid	348.15	
109347-41-3	2-Iodobenzeneacetaldehyde	308.65	
109371-20-2	Pyridine, 4-chloro-2,3,5-trimethyl-, 1-oxide	421.15	
109371-33-7	1,3-Propanediol, 2-(phenylmethoxy)-, benzoate 4-methylbenzenesulfonate, (S)-	368.65	