CAS	name	Tm	Tb
18559-63-2	6,7-Isoquinolinediol, 1,2,3,4-tetrahydro-1-[(3,4,5-trimethoxyphenyl)methyl]-, hydrochloride (1:1)	498.4	
18559-94-9	Salbutamol	424.15	
18559-95-0	N-Hydroxy-N-[4-(2-phenylethenyl)phenyl]acetamide	472.65	
18559-97-2	N-[4-(2-Phenylethenyl)phenyl]acetamide	504.65	
1856-05-9	Cholesterol trimethylsilyl ether	403.15	
18583-60-3	Borate(1-), hydrotris(1H-pyrazolato-κN1)-, potassium (1:1), (T-4)-	460.65	
18588-49-3	5-Phenyl-2,4-pyrimidinediamine	436.15	
18588-50-6	6-Methyl-5-phenyl-2,4-pyrimidinediamine	522.65	
18588-57-3	Etoprine	503.65	
1859-09-2	Ethan-1,1-d2-ol		349.65
1859-10-5	4-Methyl-9H-fluoren-9-ol	437.45	
1859-39-8	1-Hydroxy-2-phenyl-1H-indole	445.15	
1859-76-3	2-(Methylamino)benzophenone	342.15	
18591-71-4	6-Phenyl-1,2,4-triazolo[4,3-b]pyridazin-8-ol	557.65	
18591-82-7	3-Amino-6-methylpyridazine	497.65	
18592-13-7	6-(Chloromethyl)-2,4(1H,3H)-pyrimidinedione	481.15	
18593-20-9	P,P-Bis(3-nitrophenyl)phosphinic acid	545.15	
18594-05-3	1-(4-Cyclohexylphenyl)ethanone	341.65	
18595-18-1	Benzoic acid, 3-amino-4-methyl-, methyl ester	388	
18598-63-5	L-Cysteine, methyl ester, hydrochloride	413.65	
18598-74-8	L-Isoleucine, methyl ester, hydrochloride (1:1)	373.9	
18599-22-9	4-Bromo-3,3,4,4-tetrafluoro-1-butene		315.15
1860-27-1	Butyl isopropyl ether		382.15
1860-44-2	11-Chloroundecanoic acid	314.65	
1860-56-6	2-Methoxy-4-(2-nitroethenyl)-1-(phenylmethoxy)benzene	395.65	
1860-60-2	4-Methoxy-3-(phenylmethoxy)benzenemethanol	343.65	
18600-42-5	Benzenemethanamine, 4-nitro-, hydrochloride (1:1)	498.15	
18600-59-4	UV 3638	589.15	
18602-17-0	1-Propanaminium, 3-(dodecyloxy)-2-hydroxy-N,N-bis(2-hydroxyethyl)-N-methyl-, methyl sulfate (1:1)	332.65	
18607-98-2	Acetylsulfisomezole	456.65	
1861-21-8	1-Methyl-5-(1-methylethyl)-5-(2-propen-1-yl)-2,4,6(1H,3H,5H)-pyrimidinetrione	329.65	450.15
1861-32-1	Dacthal	428.65	638.15
1861-40-1	Benfluralin	338.9	
18613-55-3	N,N-Dibenzyl-4-methoxyaniline	354.9	
18618-55-8	Cerium trichloride heptahydrate	376.15	
1862-88-0	2-Hydroxy-N-methylbenzamide	362.15	
18620-05-8	4-Methyl-3,5,8-trioxa-1-phosphabicyclo[2.2.2]octane	355.15	
18622-23-6	[1,1′-Biphenyl]-4-carboxylic acid, hydrazide	462.15	
18623-11-5	Octadecylsilane	302.15	
18625-22-4	D-Leucylglycylglycine	498.15	
1863-39-4	(3β)-3-(Acetyloxy)-17-hydroxypregn-5-en-20-one	503.65	
1863-63-4	Ammonium benzoate	471.15	
18631-22-6	5H-Indeno[1,2-c]pyridin-5-one	391.65	
18635-03-5	L-Phenylalanine, N-[(1-[1,1′-biphenyl]-4-yl-1-methylethoxy)carbonyl]-, compd. with N-cyclohexylcyclohexanamine (1:1)	390.9	
18635-05-7	L-Methionine, N-[(1-[1,1′-biphenyl]-4-yl-1-methylethoxy)carbonyl]-, compd. with N-cyclohexylcyclohexanamine (1:1)	416.15	
18635-06-8	N2-[(1-[1,1′-Biphenyl]-4-yl-1-methylethoxy)carbonyl]-L-asparagine	451.4	
18636-88-9	Benzo[a]phenazine, 7,12-dioxide	448.65	
18638-99-8	3,4,5-Trimethoxybenzylamine	501.15	395.15
1864-92-2	3-Ethoxy-N,N-diethylbenzenamine		559.15
1864-94-4	Phenyl formate	308.15	
1864-97-7	Formic acid, 4-methylphenyl ester	385.15	
18640-58-9	1-(4-Bromo-3-nitrophenyl)ethanone	389.65	
18640-60-3	1-(5-Chloro-2-nitrophenyl)ethanone	337.15	
18640-74-9	2-Isobutylthiazole		334.15
18640-75-0	2-Ethyl-4,5-dihydro-5-methylthiazole		435.15
18641-57-1	Glyceryl tribehenate	314.15	
18643-08-8	Octadecyldimethylchlorosilane	302.15	
18643-84-0	1,4-Benzenedicarboxylic acid, 2-chloro-, 1,4-dimethyl ester	332.65	
18643-86-2	1,4-Dimethyl 2-bromo-1,4-benzenedicarboxylate	386.65	
1865-01-6	4-Nitrophenyl formate	346.65	
18654-81-4	(4Z)-4-Octenoic acid	238.15	
18656-40-1	Dilauroylphosphatidylcholine	272.15	
186598-40-3	N,N′-Bis(1,1-dimethylethyl)silanediamine		440.15
1866-15-5	Acetylthiocholine iodide	476.65	
1866-16-6	Butyrylthiocholine iodide	446.15	
1866-17-7	1-Propanaminium, 2-(acetylthio)-N,N,N-trimethyl-, iodide (1:1)	417.65	
1866-38-2	3-(3-Chlorophenyl)-2-propenoic acid	434.65	
1866-39-3	4-Methylcinnamic acid	471.65	
1866-73-5	Ethanaminium, N,N,N-trimethyl-2-[(1-oxopropyl)thio]-, iodide (1:1)	481.15	
18662-53-8	Trisodium nitrilotriacetate monohydrate	613.15	
18664-39-6	3-(4-Cyanophenyl)-2-propenoic acid	527.15	
18664-94-3	3,3′-[1,4-Butanediylbis(oxy)]bis[propanenitrile]	313.65	
18666-68-7	Triphenylvinylsilane	332.65	
18667-19-1	2-Chloro-N-cyclohexyl-N-[(cyclohexylamino)carbonyl]acetamide	472.4	
18667-21-5	Pyridinium, 1-(2-methoxy-2-oxoethyl)-, chloride (1:1)	464.15	
186692-46-6	Roscovitine	380.15	
1867-37-4	2-(Phenylmethyl)propanedinitrile	361.15	
1867-38-5	(4-Chlorobenzylidene)malononitrile	435.65	
1867-58-9	Chlormethiazole edisylate	397.15	
1867-66-9	Ketamine hydrochloride	535.65	
18671-97-1	2,6-Dichloroquinoxaline	432.65	
18679-90-8	Hopantenic acid	336.15	
1868-53-7	Dibromofluoromethane	195.15	338.05
18680-27-8	(+)-Pinanediol	327.65	
18680-30-3	(1S,2S,5R)-6,6-Dimethylspiro[bicyclo[3.1.1]heptane-2,2′-oxirane]	291.65	
186824-58-8	Artonol B	541.65	
186826-86-8	Moxifloxacin hydrochloride	604.15	
18684-55-4	7-Oxodehydroabietic acid	363.65	
18686-82-3	1,3,4-Thiadiazole-2-thiol	416.15	
1869-24-5	2-(Trifluoromethyl)benzenesulfonamide	457.65	
18691-97-9	Methabenzthiazuron	393.15	
18694-40-1	Epirizole	364.15	
18698-97-0	2-Bromophenylacetic acid	382.15	
18698-99-2	2-Cyanobenzeneacetic acid	395.65	
18699-02-0	Actarit	446.15	
18699-48-4	Diisobutyl terephthalate	328.15	
187-83-7	[6]Helicene	504.4	
18701-38-7	Glycine, N-[(1-[1,1′-biphenyl]-4-yl-1-methylethoxy)carbonyl]-, compd. with N-cyclohexylcyclohexanamine (1:1)	464.65	
18704-37-5	8-Quinolinesulfonyl chloride	398.15	
18704-67-1	4-Chloro-2-(1H-pyrazol-3-yl)phenol	424.15	
18705-45-8	4,4′-Diisothiocyanato-1,1′-biphenyl	484.15	
18707-60-3	Methyl crotonate		391.15
18708-70-8	2,4,6-Trichloronitrobenzene	345.15	
1871-22-3	Blue tetrazolium	516.65	
1871-52-9	1,3,5-Cyclooctatriene	190.15	418.65
1871-57-4	3-Chloro-2-(chloromethyl)-1-propene	259.15	411.15
1871-58-5	1,2,3-Trichloro-2-methylpropane		435.65
1871-67-6	trans-2-Octenoic acid	275.15	
1871-76-7	Diphenylacetyl chloride	329.65	
1871-89-2	N1,N2-Bis(2-hydroxyethyl)ethanediamide	441.15	
1871-96-1	Sebaconitrile	281.18	477.15
18713-38-7	1,3-Dimethyl 1,3-naphthalenedicarboxylate	378.65	
18714-16-4	4-Phenyl-2-pyridinecarbonitrile	372.65	
18714-34-6	2-Nitroquinoline	394.65	
18715-38-3	(3E)-3-Hexenedinitrile	349.15	
18717-72-1	(-)-Norcocaine	355.15	
18720-11-1	1,1′,1′′-(1,3-Butadien-1-yl-4-ylidene)tris[benzene]	374.9	
18720-62-2	2-Methyl-3-heptanol		426.65
18720-65-5	5-Methyl-3-heptanol	181.95	445.15
18720-66-6	6-Methyl-3-heptanol	212.15	438.65
18721-03-4	Butylammonium formate	275.15	497.65
18724-32-8	1,1,3,3-Tetramethyl-1,3-bis[2-(7-oxabicyclo[4.1.0]hept-3-yl)ethyl]disiloxane	233.15	
18725-28-5	1,2-Pyrrolidinedicarboxylic acid, 1-(1-[1,1′-biphenyl]-4-yl-1-methylethyl) ester, (S)-, compd. with N-cyclohexylcyclohexanamine (1:1)	442.15	
18725-37-6	N,S-Diacetylcysteine	384.65	
18728-61-5	α-Methyl-2-pyridinemethanol	326.65	
18729-48-1	3-Methylcyclopentanol		421.65
1873-29-6	1-Isocyanato-2-methylpropane		379.15
1873-54-7	3-Ethylquinoline		539.15
1873-88-7	1,1,1,3,5,5,5-Heptamethyltrisiloxane		414.65
1873-90-1	Heptamethylhexyltrisiloxane		500.15
1873-92-3	Dichloromethyl-2-propen-1-ylsilane		392.65
18733-06-7	2-Amino-4-octylphenol	483.15	
187393-00-6	Bemotrizinol	357.65	
1874-12-0	Ethyl 3-(5-nitro-2-furyl)acrylate	396.9	
1874-22-2	3-(5-Nitro-2-furyl)acrolein	391.65	
1874-23-3	Methyl 5-nitro-2-furoate	466.4	
1874-24-4	Methyl 3-(5-nitro-2-furanyl)acrylate	420.15	
1874-41-5	2-(3-Methoxyphenyl)-5-phenyl-1,3,4-oxadiazole	345.15	
1874-42-6	2-(2-Methoxyphenyl)-5-phenyl-1,3,4-oxadiazole	367.15	
1874-54-0	1′-C-(Hydroxymethyl)adenosine	485.15	
1874-58-4	2-Amino-6-(benzylthio)purine	483.15	
18740-59-5	1,1′,1′′-[(Chlorosilylidyne)tris(methylene)]tris[benzene]	414.15	
187402-73-9	Phebestin	462.65	
18748-91-9	Octadecanoic acid, trimethylsilyl ester	344.65	
1875-48-5	N-Aminophthalimide	475.65	
1875-88-3	4-Chlorobenzeneethanol		532.15
1875-92-9	Dimethylbenzylammonium chloride	448.15	
1876-02-4	2-Oxiraneoctanoic acid, 3-octyl-, magnesium salt (2:1)	359.15	
18760-80-0	dl-Methylephedrine hydrochloride	478.15	
1877-72-1	3-Cyanobenzoic acid	492.15	
1877-73-2	3-Nitrophenylacetic acid	391.65	
1877-75-4	4-Methoxyphenoxyacetic acid	413.15	
1877-77-6	3-Aminobenzyl alcohol	367.15	
18770-76-8	Propyl 3-[4-[[(4-methoxyphenyl)methylene]amino]phenyl]-2-methyl-2-propenoate	328.15	
18771-85-2	4-Nitrobenzofuroxan	416.65	
18773-77-8	N-Methyl-N-phenylcyanamide	301.15	
18775-39-8	1-(5-Bromo-7-ethyl-2-benzofuranyl)ethanone	342.65	
18775-40-1	1-(5-Bromo-7-ethyl-2-benzofuranyl)-2-chloroethanone	382.15	
1878-18-8	2-Methyl-1-butanethiol		389.65
1878-29-1	Ethyl 3,4,5-trimethoxycinnamate	343.15	
1878-49-5	(2-Methylphenoxy)acetic acid	426.65	
1878-51-9	2-(3-Ethylphenoxy)acetic acid	349.65	
1878-52-0	2-[3-(1-Methylethyl)phenoxy]acetic acid	338.9	
1878-55-3	2-[3-(1,1-Dimethylethyl)phenoxy]acetic acid	389.65	
1878-61-1	3-(Carboxymethoxy)benzoic acid	477.15	
1878-62-2	2-(2-Acetylphenoxy)acetic acid	392.65	
1878-65-5	(3-Chlorophenyl)acetic acid	351.9	
1878-66-6	(4-Chlorophenyl)acetic acid	379.65	
1878-67-7	3-Bromophenylacetic acid	374.15	
1878-68-8	(4-Bromophenyl)acetic acid	389.15	
1878-71-3	3-Cyanobenzeneacetic acid	391.15	
1878-81-5	4-Acetylphenoxyacetic acid	449.15	
1878-84-8	(4-Hydroxyphenoxy)acetic acid	428.65	
1878-85-9	2-(2-Methoxyphenoxy)acetic acid	463.65	
1878-87-1	2-Nitrophenoxyacetic acid	478.15	
1878-88-2	2-(3-Nitrophenoxy)acetic acid	425.65	
1878-91-7	2-(4-Bromophenoxy)acetic acid	433.65	
1878-93-9	2-(3-Iodophenoxy)acetic acid	388.65	
1878-94-0	4-Iodophenoxyacetic acid	428.65	
18780-67-1	4-[(Ethoxycarbonyl)oxy]-3,5-dimethoxybenzoic acid	455.15	
18786-24-8	(+)-Serpentine	429.15	
18787-63-8	2-Hexadecanone	317.65	
18787-64-9	3-Hexadecanone	316.15	
18787-75-2	12-Methylbenz[a]anthracene-7-carboxylic acid	499.4	
1879-09-0	2,4-Dimethyl-6-tert-butylphenol	295.45	522.15
1879-26-1	4-[(Methoxycarbonyl)amino]benzenesulfonic acid hydrazide	455.15	
1879-58-9	2-(3-Cyanophenoxy)acetic acid	393.65	
1879-72-7	Pregna-1,4-diene-3,20-dione, 9-fluoro-11,17-dihydroxy-16-methyl-21-(1-oxo-3-phenylpropoxy)-, (11β,16α)-	485.15	
1879-77-2	Doxibetasol	506.15	
18790-57-3	1,4-Dimethoxy-2-(2-nitro-1-propen-1-yl)benzene	348.15	
18791-21-4	3-Hydroxy-N-[(2Z,5R,6S,9S,10S,11R)-10-hydroxy-5,11-dimethyl-2-(1-methylpropylidene)-3,7,12-trioxo-9-(3-pyridinylmethyl)-1,4-dioxa-8-azacyclododec-6-yl]-2-pyridinecarboxamide	491.15	
18791-75-8	4-Bromo-2-thiophenecarboxaldehyde	317.65	
18791-98-5	3-Bromo-2-thiophenecarbonitrile	323.15	
187935-17-7	1α-Hydroxyvitamin D5	426.65	
188-72-7	Tribenzo[de,kl,rst]pentaphene	658.15	
188-96-5	Dibenzo[cd,lm]perylene	633.15	
18800-30-1	1-Bromo-4-(2-bromoethoxy)benzene	329.65	
18800-51-6	2,3-Dimethylbenzenethiol	295.65	
18801-00-8	2-tert-Butylanthracene	420.15	
18802-38-5	6-Amino-1,2,4-triazine-3,5(2H,4H)-dione	585.65	
18809-57-9	4-(Ethylthio)phenyl N-methylcarbamate	356.65	
1881-07-8	Pregna-4,9(11)-diene-3,20-dione, 21-(acetyloxy)-6-fluoro-17-hydroxy-16-methyl-, (6α,16α)-	462.15	
1881-37-4	(17β)-4-Fluoroestra-1,3,5(10)-triene-3,17-diol	462.65	
18810-25-8	Odoroside H	503.15	
18818-61-6	3-Hydroxyprazepam	433.15	
18819-96-0	Phosphorodithioic acid, O,O-dioctadecyl ester	327.4	
1882-26-4	Pyridinol carbamate	409.65	
1882-56-0	4-Methyl-α-phenylbenzeneacetic acid	356.65	
1882-69-5	5-Methoxy-2-nitrobenzoic acid	528.15	
1882-82-2	21-Deoxycortisone	510.65	
18820-82-1	Pyridine, hydrobromide (1:1)	428.65	
18820-83-2	Pyridine, hydriodide (1:1)	465.65	
18820-87-6	2,2′-Bipyridine, hydrochloride (1:2)	474.15	
18829-56-6	(E)-2-Nonenal		374.15
18829-70-4	(-)-Catechol	367.65	
1883-09-6	L-2,4-Diaminobutyric acid dihydrochloride	468.65	
1883-32-5	β-Phenylbenzeneethanol	337.65	
1883-75-6	2,5-Furandimethanol	353.15	
18832-83-2	Bromo(2-hydroxypropyl)mercury	349.15	
18835-34-2	1-Octacosene	304.15	
18836-52-7	Pellitorine	345.15	
18839-90-2	4-[(1E)-1-Ethyl-2-(4-methoxyphenyl)-1-buten-1-yl]phenol	383.15	
1884-68-0	2,3,4,5-Tetraphenylthiophene	437.15	
188425-85-6	Boscalid	416.15	
1885-13-8	4-Methoxyphthalic acid	443.15	
1885-14-9	Phenyl chloroformate	311.4	458.15
1885-23-0	2,2-Dibromopropanedinitrile	276.15	
1885-29-6	2-Aminobenzonitrile	324.15	536.15
1885-34-3	1-(2-Phenyldiazenyl)formaldehyde 2-phenylhydrazone	389.65	
1885-35-4	3,4,5-Trimethoxybenzonitrile	364.15	
1885-38-7	(2E)-3-Phenyl-2-propenenitrile	295.15	536.95
1885-48-9	2,2,2-Trifluoroethyl difluoromethyl ether		302.45
1885-76-3	2-Methyl-6-nitrobenzonitrile	382.65	
1885-81-0	1-Chloro-4-isocyanobenzene	344.15	
18854-51-8	1-[2-(2-Propen-1-yloxy)ethoxy]butane		356.65
18855-13-5	[1,1′-Biphenyl]-3,4′-diol	463.15	
18856-04-7	Dimethylsilylene octadecanoate	332.65	
18856-68-3	1,3-Diethyl 2-[(dimethylamino)methylene]propanedioate	450.15	
1886-45-9	6,11-Dihydro-N,N-dimethyldibenzo[b,e]thiepin-11-propanamine	320.15	
1886-57-3	1-(1,1-Dimethylethyl)-2-nitrobenzene	270.59	
18860-95-2	1,4-Dibromo-2-methyl-2-butene	267.65	
18861-57-9	Ethyl 2-cyano-3-(4-fluorophenyl)-2-propenoate	364.15	
18865-74-2	Tetrakis(2,2,6,6-tetramethylheptane-3,5-dionato)zirconium	465.15	
18868-43-4	Molybdenum dioxide	2273.15	
18869-73-3	1-Acetyl-3,3-bis[4-(acetyloxy)phenyl]-1,3-dihydro-2H-indol-2-one	474.65	
1887-29-2	Benzenesulfonothioic acid, sodium salt (1:1)	578.65	
18871-66-4	Dimethylacetamide dimethyl acetal		392.15
18879-86-2	Carbamodithioic acid, cyclohexyl-, compd. with cyclohexanamine (1:1)	487.65	
1888-09-1	Piperidine, 4-ethoxy-4-phenyl-, hydrochloride (1:1)	464.15	
1888-57-9	2,5-Dimethyl-3-hexanone		420.65
1888-71-7	1,1,2,3,3,3-Hexachloro-1-propene	200.25	482.65
1888-75-1	Isopropyllithium	372.65	
18880-00-7	4-tert-Butylbenzyl bromide	288.35	
18881-04-4	(-)-Verbenol	338.15	
188815-32-9	3-Bromo-5-iodobenzoic acid	483.15	
18883-66-4	Streptozotocin	388.15	
188895-96-7	Epiboxidine	475.65	
1889-67-4	2,3-Dimethyl-2,3-diphenylbutane	388.15	436.65
1889-71-0	1-(4-Chlorophenyl)-2-phenylethanone	380.65	
1889-96-9	2,3-Dihydroxy-4,4,5,5-tetramethyl-2-cyclopenten-1-one	443.15	
18898-57-2	Tris(diethyldithiocarbamato)chromium	439.15	
189-55-9	Dibenzo[a,i]pyrene	553.15	
189-64-0	Dibenzo[a,h]pyrene	590.15	
18903-01-0	1-Cinnamylpiperazine	368.15	
18904-54-6	Corynantheine	437.15	
18905-30-1	rel-(1R,2R)-3,5-Cyclohexadiene-1,2-diol	347.15	
189060-13-7	Lapaquistat acetate	468.15	
18908-66-2	2-Ethylhexyl bromide	432.15	368.65
1891-45-8	Himachalol	340.65	
1891-90-3	4-(Trifluoromethyl)benzamide	458.15	
1891-95-8	Chloroxynil	417.65	
18912-37-3	4-Methoxybenzyl carbazate	347.65	
18916-17-1	Naringin dihydrochalcone	441.65	
1892-12-2	Cyclododecanemethanol	305.65	
1892-29-1	Hydroxyethyl disulfide	298.65	
1892-31-5	Thiopropionic acid	391.15	381.65
1892-43-9	2-(4-Chlorophenoxy)ethanol	301.15	
1892-54-2	3-Phenanthrenamine	358.15	
1892-80-4	Fenethylline hydrochloride	501.15	
18922-54-8	N-[Bis(1-methylethyl)-λ4-sulfanylidene]-4-methylbenzenesulfonamide	411.15	
18924-67-9	2,2′-(Hexadecylimino)bis[ethanol]	323.15	
18928-62-6	N1,N4-Bis(2-hydroxyethyl)-1,4-benzenedicarboxamide	500.35	
1893-33-0	Pipamperone	398.4	
1893-91-0	Pregnane-3,20-dione, 21-(acetyloxy)-6-fluoro-5,17-dihydroxy-16-methyl-, (5α,6β,16α)-	510.65	
18933-33-0	Carnitinenitrile chloride	520.65	
18934-20-8	3,3′-[(3-Methylphenyl)imino]bis[propanenitrile]	360.15	
18936-17-9	2-Methylbutyronitrile	389.15	398.15
18939-69-0	Carbamimidothioic acid, butyl ester, monohydrochloride	345.15	
18940-21-1	5,5-Dimethyl-3-(phenylamino)-2-cyclohexen-1-one	456.65	
18940-59-5	Piperazine, 1,4-diisovaleryl-	373.15	
18942-49-9	N-tert-Butoxycarbonyl-D-phenylalanine	361.65	
18944-77-9	(2E)-3-(2-Fluorophenyl)-2-propenoic acid	449.15	
18956-87-1	Phenothiazine-10-carbonyl chloride	372.15	
1896-62-4	trans-4-Phenyl-3-buten-2-one	315.15	535.15
18961-61-0	(9Z)-N-Butyl-9-octadecenamide	302.9	
18962-05-5	4-Isopropoxybenzaldehyde	440.15	408.65
18964-31-3	Perchloro-2-methylene-4-cyclopentene-1,3-dione	505.65	
1897-41-2	Tetrachloroterephthalonitrile	456.65	
1897-43-4	2,5-Dichloro-1,4-benzenedicarbonitrile	487.65	
1897-45-6	Chlorothalonil	523.65	623.15
1897-49-0	2,5-Difluoro-1,4-benzenedicarbonitrile	429.65	
1897-52-5	2,6-Difluorobenzonitrile	304.15	372.15
1897-53-6	2-Fluoro-1,4-benzenedicarbonitrile	395.4	
1897-80-9	3-(4-Fluorophenyl)-2-methyl-4(3H)-quinazolinone	406.15	
1897-81-0	3-(3-Fluoro-2-methylphenyl)-2-methyl-4(3H)-quinazolinone	412.65	
1897-89-8	3-(2-Methylphenyl)-2-[2-(2-pyridinyl)ethenyl]-4(3H)-quinazolinone	468.4	
1897-96-7	3-(4-Ethoxyphenyl)-2-methyl-4(3H)-quinazolinone	421.15	
18977-36-1	2,6-Bis[(3-nitrophenyl)methylene]cyclohexanone	464.65	
18978-78-4	8-Aminoquinaldine	329.15	
18979-50-5	4-Propoxyphenol	329.65	
18979-53-8	4-(Pentyloxy)phenol	329.65	
18979-55-0	4-(Hexyloxy)phenol	319.15	
18979-60-7	4-Propylresorcinol	355.65	
18979-61-8	Butylresorcinol	320.65	
18979-90-3	4-Chloro-2-ethylphenol	345.65	
1898-13-1	Cembrene	332.65	432.15
1898-66-4	DPPH radical	402.15	
18982-54-2	2-Bromobenzyl alcohol	352.15	
18984-21-9	2,4-Dichloro-1-(2-nitroethenyl)benzene	383.15	
18989-35-0	2,6-Bis(p-methylbenzylidene)cyclohexanone	442.65	
18989-81-6	2,6-Bis[(2-chlorophenyl)methylene]cyclohexanone	382.15	
18989-82-7	2,6-Bis(4-chlorobenzylidene)cyclohexanone	420.65	
1899-40-7	5,6,7,8-Tetrahydro-2,4-quinazolinediamine	514.15	
1899-94-1	3-Methylbenzenesulfonamide	380.65	
18991-98-5	Butyl 2-bromoacetate	432.15	
18992-13-7	2-Methyl-2-nitropropanenitrile	307.15	
18993-09-4	Undecanoic acid, 10-oxo-, methyl ester	331.65	
18997-19-8	Chloromethyl pivalate	406.65	
18997-57-4	4-Methylumbelliferyl β-D-glucopyranoside	479.15	
18999-28-5	2-Heptenoic acid	254.15	499.65
18999-43-4	1-(2,2-Diethoxyethyl)-1H-imidazole	384.15	
190-26-1	Ovalene	748.65	
1900-29-4	Trypacidin	502.65	
1900-52-3	Sitosterol benzoate	418.65	
19006-82-7	6-Phenyl-2(1H)-pyridinone	468.65	
19008-43-6	Benzoic acid, 4-amino-, phenylmethyl ester	357.85	
19009-39-3	N,N-Bis(1-methylethyl)carbamic chloride	333.15	
1901-26-4	3-Methyl-4-phenyl-3-buten-2-one	310.65	
1901-38-8	α-Campholenol		405.15
19010-65-2	(T-4)-Bis(N,N-dipentylcarbamodithioato-κS,κS′)cadmium	414.65	
19010-79-8	(T-4)-Bis[2-(hydroxy-κO)benzoato-κO]cadmium	515.15	
19012-03-4	1-Methylindole-3-carboxaldehyde	342.65	
19013-10-6	Benzoic acid, 4-hydroxy-3-nitro-, ethyl ester	346.15	
19013-11-7	4-Methyl-3-nitrobenzamide	441.65	
19014-03-0	1-Propanaminium, N,N,N-trimethyl-, iodide (1:1)	461.65	
19014-05-2	Benzenemethanaminium, 4-dodecyl-N,N,N-trimethyl-, chloride (1:1)	464.15	
19014-41-6	Hydrazinium, 1-[2-(ethylphenylamino)ethyl]-1,1-dimethyl-, chloride (1:1)	399.15	
19018-24-7	α-Methyl-1H-benzimidazole-2-methanol	452.65	
19019-04-6	2-Methoxy-3,5-dinitrobenzonitrile	344.15	
1902-01-8	Butanoic acid, 2,4-dihydroxy-3,3-dimethyl-, sodium salt (1:1)	446.15	
19026-22-3	2-Acetamido-2-deoxy-D-gluconolactone	433.15	
19026-73-4	Tricyclo[3.3.1.13,7]decane-1-acetamide	440.15	
19026-84-7	N-1-Adamantylbenzamide	418.15	
1903-22-6	Acetic acid, 2-cyclopentylidene-, ethyl ester	356.15	
19037-72-0	4,4-Dimethylcyclopentene		361.15
19037-74-2	1-Dodecanaminium, N,N′-(oxydi-2,1-ethanediyl)bis[N,N-dimethyl-, chloride (1:2)	331.15	
19039-24-8	Spiro[1-azabicyclo[2.2.2]octane-3,2′-thiazolidine], hydrochloride (1:2)	525.65	
1904-58-1	2-Aminobenzohydrazide	481.65	
1904-98-9	2,6-Diaminopurine	575.15	
19040-62-1	2,5-Dimethylbenzenesulfonyl chloride	430.15	
19040-71-2	4-(Chloromethyl)-7,8-dihydroxy-2H-1-benzopyran-2-one	473.65	
19041-66-8	Boldenone benzoate	473.15	
19044-88-3	Oryzalin	410.65	
19045-79-5	Phosphoric acid, monooctyl ester, potassium salt (1:2)		562.15
19047-85-9	Dioctadecyl phosphonate	328.65	
19049-40-2	Hexakis[μ-(acetato-κO:κO′)]-μ4-oxotetraberyllium	559.85	
19050-48-7	2,3,5,6-Tetrachloro-4-(propylthio)pyridine	314.15	
19055-93-7	Hexahydro-2H-1,3-diazepin-2-one	445.65	
19056-26-9	N1,N10-Bis(2-methyl-4-quinolinyl)-1,10-decanediamine	423.65	
19057-60-4	(+)-Dioscin	561.15	
1906-57-6	Ethanedioic acid, 1-ethyl ester, potassium salt (1:1)	496.65	
1906-79-2	Ethylpyridinium bromide	393.65	
1906-82-7	Ethyl acetamidoacetate	321.15	
19064-18-7	2,6-Difluorobenzenemethanol	441.9	
19064-24-5	1,3-Difluoro-2-nitrobenzene	347.15	
19064-64-3	3,6-Dichloro-4-methylpyridazine	364.9	
19064-69-8	1-Phthalazinamine	484.15	