CAS	name	Tm	Tb
129-65-7	1,3-Dihydro-4,10-dihydroxy-8-methyl-3-oxoisobenzofuro[5,4-b]benzofuran-7-carboxylic acid	554.15	
129012-50-6	(3α,4β,5β,12α)-3,4,12-Trihydroxycholan-24-oic acid	424.65	
129025-54-3	Clofencet	542.15	
129053-84-5	N-(1H-Pyrrol-2-ylcarbonyl)-β-alanine	423.15	
1290628-35-1	N-(1,1-Dimethylethyl)-2,3,4,5-tetrahydro-4-(1-methylethyl)-3-oxo-1,4-benzoxazepine-5-carboxamide	396.15	
129099-70-3	3β,4β,7α,12α-Tetrahydroxy-5β-cholan-24-oic acid	421.65	
129099-93-0	(2R,4R)-16-Heptadecyne-1,2,4-triol	349.15	
129109-19-9	Methyl 4-chloro-1-(4-chlorophenyl)-1,6-dihydro-6-oxo-3-pyridazinecarboxylate	435.65	
129112-65-8	2,4-Dichloro-7-nitroquinazoline	422.15	
129119-78-4	4-Methyl-2-oxo-2H-1-benzopyran-7-yl N-[3-(triethoxysilyl)propyl]carbamate	362.15	
129119-80-8	2,4-Dihydro-4-(phenylmethyl)-5-(3-pyridinyl)-3H-1,2,4-triazole-3-thione	447.15	
129135-87-1	Potassium bis(nonafluorobutanesulfonyl)imide	613.65	
129145-50-2	Gancaonin L	463.65	
129145-51-3	Gancaonin M	413.15	
129145-52-4	5,7-Dihydroxy-3-(2-hydroxy-4-methoxyphenyl)-6-(3-methyl-2-buten-1-yl)-4H-1-benzopyran-4-one	433.65	
129145-53-5	2-(3,4-Dihydroxyphenyl)-5,7-dihydroxy-6-(3-methyl-2-buten-1-yl)-4H-1-benzopyran-4-one	519.65	
129145-54-6	2-(3,4-Dihydroxyphenyl)-3,5,7-trihydroxy-6-(3-methyl-2-buten-1-yl)-4H-1-benzopyran-4-one	512.15	
1291487-34-7	8-Oxa-3-azabicyclo[3.2.1]octane-2-thione	390.65	
129150-61-4	Methyl 3-hydroxy-4-methoxybenzenepropanoate	369.65	
129177-09-9	Benzaldehyde, 2-(2-chloro-4-quinazolinyl)hydrazone	446.15	
129192-17-2	5-Amino-4′-methyl[1,1′-biphenyl]-3-carboxylic acid	500.65	
129227-27-6	4-Fluorobenzaldehyde 2-(3,4-dihydro-3-oxo-2-quinoxalinyl)hydrazone	559.15	
129288-35-3	9H-Fluoren-9-ylmethyl (4R)-4-methyl-2,5-dioxo-3-oxazolidinecarboxylate	384.15	
129303-83-9	1,4-Dimethyl-1H-1,2,3-triazolo[4,5-c]pyridine	417.15	
129332-30-5	3-[3-(4-Fluorophenyl)-1-(1-methylethyl)-1H-indol-2-yl]-2-propenal	396.15	
129371-31-9	1,3-Benzenediol, 5-(hydroxymethyl)-, homopolymer	333.65	
129414-89-7	5-Methoxy-2-(4-phenyl-5-isoxazolyl)-4-propylphenol	410.65	
129432-25-3	2,6-Dichloro-4-methyl-3-pyridinamine	357.65	
1294481-80-3	β-D-erythro-Pentofuranose, 2-deoxy-2-fluoro-2-methyl-, 3,5-bis(4-chlorobenzoate), (2R)-	375.65	
1294481-82-5	9-[(2R)-3,5-Bis-O-(4-chlorobenzoyl)-2-deoxy-2-fluoro-2-methyl-β-D-erythro-pentofuranosyl]-6-chloro-9H-purin-2-amine	446.65	
129477-22-1	2,5-Dimethyl-3-pyridinecarboxylic acid	458.65	
129488-39-7	4-(1,1-Dimethylethyl)-N-(4-hydroxyphenyl)benzamide	472.15	
129488-44-4	Benzamide, N-(2-chlorophenyl)-4-(1,1-dimethylethyl)-	338.65	
129488-45-5	N-(3-Chlorophenyl)-4-(1,1-dimethylethyl)benzamide	379.15	
129488-74-0	4-(1-Cyano-1-methylethyl)benzoic acid	448.15	
1295-36-9	Ferrocene, (2-hydroxybenzoyl)-	360.65	
129511-07-5	Methyl 4-(acetylamino)-5-chloro-2-hydroxy-3-(2-propen-1-yl)benzoate	462.65	
129578-06-9	Goniofufurone	424.15	
129578-07-0	Goniopypyrone	453.65	
129593-20-0	Benzenebutanoic acid, β-amino-α-hydroxy-, hydrochloride (1:1), (αS,βS)-	502.15	
129611-32-1	2-Bromo-6-iodo-3-pyridinol	414.65	
129625-34-9	Carbamic acid, [[[2-nitro-4-(trifluoromethyl)phenyl]amino]thioxomethyl]-, methyl ester	444.15	
129630-17-7	Pyraflufen	399.65	
129644-21-9	1-[4-(2,4-Dichlorophenoxy)phenyl]ethanone	345.65	
129667-71-6	7-Amino-2-naphthalenecarbonitrile	470.15	
129673-90-1	Procurcumadiol	423.4	
129683-96-1	(+)-Murisolin	346.15	
129689-54-9	5-Acetyl-1,4-dimethyl-2(1H)-pyridinone	378.15	
129700-38-5	1-Phenyl-3-[4-(trifluoromethyl)phenyl]-1,3-propanedione	374.15	
129722-34-5	7-(4-Bromobutoxy)-3,4-dihydro-2(1H)-quinolinone	383.9	
1297344-88-7	4-Nitro-1-(3-nitrophenyl)-1H-imidazole	503.15	
1297537-45-1	3-Acetyl-1H-pyrazole-5-carboxylic acid	536.15	
1297613-73-0	Diindeno[7,1-de:1′,7′-fg][1,3,2]dioxaphosphocin, 10,11,12,13-tetrahydro-5-hydroxy-3,7-di-1-naphthalenyl-, 5-oxide, (11aR)-	443.65	
129800-02-8	3-(4,5-Dimethyl-2-furanyl)-2-propenoic acid	457.65	
1298044-25-3	(2R)-2-(6-Bromo-2-methoxy-3-quinolinyl)-1-(1-naphthalenyl)-2-phenylethanone	441.15	
129812-24-4	2a,9b-Dihydro-2a,8,9b-trimethyl-6H-1,2-dioxeto[3′,4′:4,5]furo[3,2-g][1]benzopyran-6-one	379.65	
1298133-38-6	N-[(1R)-7′-[Bis[3,5-bis(1,1-dimethylethyl)phenyl]phosphino]-2,2′,3,3′-tetrahydro-1,1′-spirobi[1H-inden]-7-yl]-4-(1,1-dimethylethyl)-2-pyridinemethanamine	360.15	
129833-54-1	6-Bromo-7-methyl-1H-indole-2,3-dione	541.15	
129872-83-9	2,4-Dichloro-5-(phenylmethyl)-5H-pyrrolo[3,2-d]pyrimidine	390.15	
129872-84-0	2-Chloro-3,5-dihydro-5-methyl-4H-pyrrolo[3,2-d]pyrimidin-4-one	501.65	
129872-85-1	2-Chloro-5-ethyl-3,5-dihydro-4H-pyrrolo[3,2-d]pyrimidin-4-one	494.65	
129872-86-2	2-Chloro-3,5-dihydro-5-(phenylmethyl)-4H-pyrrolo[3,2-d]pyrimidin-4-one	507.65	
129939-31-7	α-(Trifluoromethyl)-L-phenylalanine	473.15	
129940-50-7	(2S)-2-[(Triphenylmethoxy)methyl]oxirane	368.15	
129959-09-7	8-Methoxy-1(2H)-isoquinolinone	472.65	
129973-03-1	2-Methyl-N-(4-methylbenzoyl)alanine	490.15	
130-03-0	Benzo[b]thiophen-3(2H)-one	503.15	
130-19-8	7,16-Dibromo-6,15-dihydro-5,9,14,18-anthrazinetetrone		513.15
130000-40-7	Thifluzamide	451.15	
13001-29-1	1,3,5-Trichloro-2-(2-chloroethoxy)benzene	304.15	
130017-40-2	3-[[1-(6,7-Dimethoxy-4-quinazolinyl)-4-piperidinyl]methyl]-3,4-dihydro-2(1H)-quinazolinone	490.15	
130017-52-6	5-(Acetylamino)-4-methoxy-2-nitrobenzoic acid	532.65	
130056-69-8	2-(2-Nitrophenyl)-3-furancarboxaldehyde	366.65	
13007-37-9	Methyl 2,3,4-tri-O-acetyl-β-D-xylopyranoside	388.15	
13007-50-6	D-Ribofuranoside, methyl 2,3-O-(1-methylethylidene)-, 5-(4-methylbenzenesulfonate)	357.9	
130090-03-8	2-[[4-[3-(3-Nitrophenyl)-1-oxo-2-propen-1-yl]phenyl]amino]-3-(1-piperidinyl)-1,4-naphthalenedione	493.15	
130147-42-1	2-(Hydroxymethyl)-2-[(phenylmethoxy)methyl]-1,3-propanediol	346.15	
130155-33-8	(3β,22E)-Ergosta-5,7,22-trien-3-yl β-D-glucopyranoside	581.15	
13017-50-0	2-(1-Methylpropylidene)propanedinitrile	273.24	
13018-10-5	Torilin	350.65	
13021-18-6	1-(4′-Methoxy[1,1′-biphenyl]-4-yl)ethanone	426.65	
13021-19-7	4,4′′-Dimethoxy-p-terphenyl	546.65	
13022-88-3	N1,N1-Diethyl-1,3-butanediamine		443.15
13022-91-8	Itaconimide	376.4	
130234-71-8	2-Hydroxy-N-(4-methyl-2-thiazolyl)benzamide	516.15	
130250-55-4	3-Piperidinecarboxamide, 1-formyl-	404.65	
130250-62-3	N,2-Dimethoxy-N-methylbenzamide	321.15	
13026-20-5	3-(4-Quinolinyl)-2-propenoic acid	543.15	
13027-33-3	3β,5α-Dihydroxycholestan-6-one	507.15	
130289-31-5	(3β,6α)-3,6,19-Trihydroxyurs-12-en-28-oic acid	544.15	
13029-24-8	2,4-Dinitro-1-naphthalenamine	515.15	
13029-72-6	N-[(4-Chlorophenyl)sulfonyl]glycine	449.3	
13030-63-2	11-Bromo-10-undecynoic acid	319.9	
13031-64-6	N-[(1S,2R)-2-Hydroxy-1-(hydroxymethyl)heptadecyl]acetamide	389.15	
130312-01-5	2-(Tetrahydro-4H-pyran-4-ylidene)acetic acid	357.65	
13032-41-2	Decahydro-2-naphthalenecarboxylic acid	353.15	
13033-84-6	D-Phenylalanine, methyl ester, hydrochloride (1:1)	430.15	
130332-27-3	4-[[(1R)-2-[[(2R)-3-(1H-Indol-3-yl)-2-methyl-1-oxo-2-[[(tricyclo[3.3.1.13,7]dec-2-yloxy)carbonyl]amino]propyl]amino]-1-phenylethyl]amino]-4-oxobutanoic acid	417.15	
130339-07-0	Diflumetorim	320.45	
13037-63-3	Benzene, 2,4-dibromo-1-isothiocyanato-	332.65	
13037-82-6	2,6-Dimethyl-4-propylphenol	306.65	
13037-88-2	4-(Hexadecyloxy)phenol	359.4	
13038-26-1	Methyl 2,2,3,3,4,4,5,5,5-nonafluoropentanoate		372.65
13041-62-8	4-Methoxy-1-naphthalenecarboxylic acid	503.15	
130414-30-1	1-Ethyl (αR)-α-[[(1S)-1-carboxy-5-[(2,2,2-trifluoroacetyl)amino]pentyl]amino]benzenebutanoate	431.15	
130420-76-7	5-Bromo-4-methoxy-1H-indole-2,3-dione	483.15	
130423-14-2	rel-(1′R,6′R)-7-Chloro-4,6-dimethoxy-6′-methyl-2′-(methylthio)spiro[benzofuran-2(3H),1′-[2]cyclohexene]-3,4′-dione	508.15	
13046-76-9	1-Deoxy-D-ribitol	340.15	
13047-04-6	4-Aminocatechol	397.65	
13050-56-1	4-Methoxy-N,N-bis(4-methoxyphenyl)benzenamine	367.65	
130506-36-4	β-D-Galactopyranosiduronic acid, 2-propen-1-yl, methyl ester, 2,3,4-triacetate	371.65	
130506-81-9	Ethanone, 1-[7-[2-(dimethylamino)ethenyl]pyrazolo[1,5-a]pyrimidin-6-yl]-, (E)-	425.65	
13051-21-3	1-Methyl 2,2-dimethylpropanedioate	309.65	
130518-19-3	Benzo[6,7]cyclohepta[1,2,3-cd]benzofuran-4,8,10-triol, 1,6,7,11b-tetrahydro-1,7-bis(4-hydroxyphenyl)-, (1S,7S,11bS)-	479.15	
130523-93-2	(9Z,13Z,15E)-14,18-Dihydroxy-12-oxo-9,13,15-octadecatrienoic acid	343.15	
130525-43-8	4,5-Dibromo-2,7-bis(1,1-dimethylethyl)-9,9-dimethyl-9H-xanthene	532.65	
13053-82-2	N-2-Thiazolylbenzamide	423.15	
13053-84-4	N-(5-Methyl-1,3,4-thiadiazol-2-yl)benzamide	517.15	
13053-86-6	N-(3,4-Dimethyl-5-isoxazolyl)acetamide	387.65	
13053-89-9	N-2-Pyrimidinylbenzamide	415.15	
13054-44-9	Ethyl α-oxo-2-benzoxazolepropanoate	342.15	
13054-48-3	4,5,6,7,8,9-Hexahydrocyclooct[c]isoxazol-3-amine	350.65	
13056-38-7	L-Alanine, N-[N-[(phenylmethoxy)carbonyl]-L-histidyl]-	485.65	
130566-25-5	5-Chloro-2-propoxybenzenamine	272.15	
13057-98-2	Benzylpenicilloic acid	385.15	
13058-05-4	2-Chloro-1,3,4,5,6-pentamethylborazine	400.9	
13059-85-3	N-Isopropyl-2,4-dinitroaniline	364.15	
13059-93-3	[2,2′:5′,2′′-Terthiophene]-5-methanol	423.65	
13060-15-6	(+)-Aschantin	396.15	
13061-97-7	Borinic acid, dimethyl-	235.4	329.15
130612-32-7	2-(1-Methyl-1H-1,2,4-triazol-3-yl)pyrazine	448.15	
13062-77-6	1,2-Benzenediol, 4-[[[2-(4-hydroxyphenyl)ethyl]amino]methyl]-, hydrochloride (1:1)	453.15	
13063-06-4	Dihydronitidine	495.15	
130636-61-2	1,1-Dimethylethyl 4-[(4-nitrophenyl)methyl]-1-piperazinecarboxylate	372.65	
13065-86-6	4-Amino-3-hydroxy-2-naphthalenecarboxylic acid	514.15	
13066-95-0	4-Aminoresorcinol	491.15	
130676-64-1	2H-Pyran-2-one, 3-hexyl-5,6-dihydro-6-undecyl-, (S)-	325.15	
13070-90-1	Ethyl 2,3-dihydro-2-hydroxy-1H-indene-2-carboxylate	365.65	
13071-14-2	5-(4-Methoxyphenylazo)-8-hydroxyquinoline	475.15	
13073-26-2	2-iodo-6-nitrophenol	383.15	
13073-36-4	Pregnane-3,20-dione, 21-(3-carboxy-1-oxopropoxy)-	473.15	
13074-06-1	L-Fucitol	428.15	
130769-54-9	Glycine, monohydrate	444.65	
13078-28-9	N-(4-Methylphenyl)-1,2,3,4-thiatriazol-5-amine	416.15	
13078-82-5	Benzeneethanamine, 4-amino-, hydrochloride (1:2)	569.15	
13078-93-8	3-(2-Aminoethyl)-1H-indol-2-ol	521.15	
130783-05-0	4-Mercapto-1,3-benzenedicarbonitrile	453.15	
130798-49-1	2-Carboxy-4-chloro-1H-indole-3-propanoic acid	528.65	
13080-21-2	3-Hydrazinyl-2(1H)-quinoxalinethione	527.15	
13082-10-5	1,3-Dimethoxy-10-methyl-9(10H)-acridinone	432.15	
130820-89-2	Methanesulfonic acid, 1,1,1-trifluoro-, compd. with 4-pyridinemethanesulfonyl chloride (1:1)	390.15	
130837-95-5	5-Hydroxy-3-methoxy-1,4-phenanthrenedione	538.15	
130848-06-5	Decursinol angelate	366.65	
13085-53-5	2-(1,2-Dihydro-1-methyl-2-oxo-4-pyrimidinyl)hydrazinecarboxamide	435.65	
1308652-65-4	9-[2-[Bis(1-methylethyl)phosphino]phenyl]-9H-carbazole	419.95	
1308652-66-5	9-[2-(Diethylphosphino)phenyl]-9H-carbazole	393.45	
13089-19-5	α-D-Glucopyranoside, phenyl 2-(acetylamino)-2-deoxy-, 3,4,6-triacetate	392.15	
13091-44-6	2-(Acetylamino)-3-bromo-5-methylbenzoic acid	488.65	
13092-93-8	4-Formyl-N-methylbenzenesulfonamide	392.4	
13093-11-3	1-Silaacenaphthylene, 1,1-dichloro-1,2-dihydro-	322.15	
13093-65-7	α,4-Dihydroxybenzeneacetonitrile	373.65	
13093-87-3	Benzylpenillic acid	454.15	
130931-83-8	(+)-2-Azabicyclo[2.2.1]hept-5-en-3-one	367.15	
13094-51-4	Bromoacetic anhydride	314.65	
13095-61-9	26-Hydroxycholesterol	445.65	
1309569-25-2	(OC-6-21)-[3-(1-Chloro-2-methoxy-2-oxoethyl)-4-nitrophenyl]pentafluorosulfur	349.15	
13096-98-5	6-Chloro-5-methoxy-1H-indazole	450.15	
1309606-48-1	1-(4-Hydroxyphenyl)-2-azetidinone	494.15	
13097-02-4	4-Chloro-3-phenyl-1H-indazole	477.65	
13099-99-5	2-Methyl-2H-pyrido[3,4-b]indole	413.15	
1309955-15-4	3,4-Dihydro-5-phenyl-1(2H)-isoquinolinone	464.15	
1309955-20-1	6-Ethynyl-3,4-dihydro-1(2H)-isoquinolinone	431.15	
131-10-2	(13aS)-5,8,13,13a-Tetrahydro-6H-dibenzo[a,g]quinolizine	358.65	
131-12-4	Pimpinellin	392.15	
131-88-4	Benzene, 1,1′-(1,2-diethyl-3-methylene-1,3-propanediyl)bis[4-methoxy-	317.15	
13100-00-0	2-Methyl-1,2,3,4-tetrahydro-β-carboline	489.65	
13100-69-1	5,6-Epoxy-5,6-dihydroretinoic acid	435.65	
131002-03-4	2-Bromo-4-methylbenzamide	445.15	
13101-89-8	2-Fluoro-6-methoxynaphthalene	331.65	
13102-93-7	3-(2-Naphthalenylmethylene)-1(3H)-isobenzofuranone	444.15	
1310481-61-8	2-Ethyl-5-methoxy-1H-indole-3-carbonitrile	420.65	
13106-85-9	2,4,6-Trimethoxypyrimidine	326.15	
13107-54-5	N2,N4-Diphenyl-1,3,5-triazine-2,4-diamine	589.15	
131086-78-7	N1,N5,N10-(E)-Tri-p-coumaroylspermidine	451.15	
13109-84-7	2-(3-Methyl-4H-1,2,4-triazol-4-yl)benzenamine	437.15	
1311186-65-8	6,7-Dihydro-2-[4-(trifluoromethyl)phenyl]-5H-cyclopentapyrimidin-4-amine	429.15	
131123-87-0	S-2-Benzothiazolyl methanethioate	396.15	
13114-73-3	N,N-Diethyl-N′,N′-diphenylurea	327.15	
13114-89-1	N-(2-Fluorophenyl)-N′-phenylurea	449.65	
13115-21-4	Hydroxyguanidine	473.15	
131169-65-8	6-Fluoro-N-(2-methoxyphenyl)-2-benzothiazolamine	390.65	
13117-35-6	N,N-Dimethyl-1H-indole-3-propanamine	366.65	
131176-03-9	D-Proline, 4-fluoro-, methyl ester, hydrochloride, (4S)-	387.15	
131179-72-1	N-(4-Fluorophenyl)-4-hydroxybenzeneacetamide	407.15	
131180-49-9	(2S)-α,α-Bis(4-chlorophenyl)-2-pyrrolidinemethanol	387.4	
131180-52-4	(2S)-α,α-Bis(4-methylphenyl)-2-pyrrolidinemethanol	366.65	
131180-54-6	2-Pyrrolidinemethanol, α,α-bis[4-(trifluoromethyl)phenyl]-, hydrochloride, (S)-	563.15	
131180-61-5	(2S)-α,α-Bis(3,5-dichlorophenyl)-2-pyrrolidinemethanol	391.65	
131180-65-9	(2S)-α,α-Bis[4-(trifluoromethyl)phenyl]-2-pyrrolidinemethanol	357.65	
13119-77-2	Ethyl α-oxo-4-quinolinepropanoate	461.65	
131211-27-3	Di-1-adamantylphosphine	448.15	
13122-90-2	N-[(1,1-Dimethylethoxy)carbonyl]-L-phenylalanyl-L-phenylalanine	346.65	
131221-80-2	1-Phenyl-1,2-cyclopentanediol	293.65	
13125-63-8	Benzenepropanamine, N-ethyl-, hydrochloride (1:1)	425.15	
13125-68-3	1-Bromo-3-nitrosobenzene	350.15	
131266-91-6	4-[(4-Nitrobenzoyl)oxy]benzaldehyde	479.4	
13129-21-0	3-Thietanecarboxylic acid, 1,1-dioxide	413.15	
13129-22-1	2H-Thiopyran-4-carboxylic acid, tetrahydro-, 1-oxide	414.65	
13129-26-5	α-Methyl-3-furanmethanol	330.65	
13129-27-6	1,3-Diethyl 2-(2-furanylmethyl)propanedioate	416.65	
13129-39-0	2-(2-Propen-1-ylthio)furan	328.15	
13129-68-5	1-[(Diethylamino)methyl]-1H-indole-2,3-dione	450.15	
13130-40-0	2-(Acetylamino)-4,5-dimethyl-3-thiophenecarboxylic acid	478.65	
13130-50-2	[2,2′:5′,2′′-Terthiophene]-5,5′′-dicarboxaldehyde	489.65	
13133-07-8	Nystose	404.65	
13138-37-9	P-(1-Aminopentyl)phosphonic acid	535.15	
13138-73-3	Methyl 5-nitro-1H-pyrrole-2-carboxylate	466.15	
13138-75-5	Methyl 1-methyl-5-nitro-1H-pyrrole-2-carboxylate	385.15	
13139-94-1	2-Oxononanoic acid	340.65	
131394-09-7	1-(3,4-Dinitro-1H-pyrazol-1-yl)-2-propanone	393.15	
131403-79-7	Pyrrolo[2,1-d][1,5]benzothiazepin-7-ol, 6,7-dihydro-6-(4-methoxyphenyl)-, cis-	346.15	
13141-43-0	2-[2-(2-Pyridinyl)ethynyl]benzenamine	377.65	
13142-58-0	N-(3,5-Dichlorophenyl)-N′-phenylurea	475.65	
13142-61-5	N-(3-Nitrophenyl)urea	406.65	
13142-83-1	N-(3-Methoxyphenyl)-N′-phenylurea	428.15	
131467-94-2	5-Phenyl-1,3,4-oxadiazole-2-acetic acid	377.15	
13147-09-6	1-Methyl-4-phenyl-4-propionoxypiperidine	455.65	
13148-63-5	2-(Phenylmethyl)-1,3,4-oxadiazole		393.15
13148-94-2	2-Methyl-1-cyclohexene-1-carboxylic acid	334.15	
13149-04-7	rel-(1R,2R)-4-Cyclohexene-1,2-dimethanol	312.65	
13152-95-9	(2,4-Dimethylphenyl)(3-methylphenyl)methanone		590.65
131526-90-4	2,3-Dihydro-7-hydroxy-8-propylcyclopenta[c][1]benzopyran-4(1H)-one	436.65	
13153-01-0	Benzoic acid, 2-[(phenylamino)thioxomethyl]hydrazide	446.15	
13154-25-1	Chlorotris(2-methylpropyl)silane		499.65
1315550-50-5	3-Chloro-5-methoxybenzo[b]thiophene-2-carboxaldehyde	413.65	
13156-02-0	1-Chloro-3-[(1,1-dimethylethyl)amino]-2-propanol	315.65	
13156-03-1	1-(1,1,3,3-Tetramethylbutyl)-3-azetidinol	325.65	
13156-04-2	1-tert-Butyl-3-hydroxyazetidine	318.65	
13157-90-9	3,3′,4′,5,7-Pentabenzyloxyflavone	397.15	
131598-62-4	6-Amino-5-(ethylamino)-1-methyl-2,4(1H,3H)-pyrimidinedione	482.15	
13160-56-0	N-(4-Hydroxyphenyl)-4-nitrobenzamide	531.15	
13161-32-5	4-Hydroxyphthalide	527.15	
13161-75-6	(+)-Pteryxin	354.15	
131613-55-3	5-Carboxy-1,3-dihydro-1,3-dioxo-α-(phenylmethyl)-2H-isoindole-2-acetic acid	506.15	
131651-38-2	(6S)-6-(2-Hydroxy-4-methylphenyl)-2-methyl-2-hepten-4-one	326.65	
131674-41-4	(2E)-3-(2-Methoxy-3-pyridinyl)-2-propenoic acid	464.15	
131685-20-6	2-[2-(Phenylmethoxy)ethyl]cyclopentanone	312.65	
131690-61-4	(βR)-β-Amino-4-chlorobenzenepropanoic acid	515.65	
13170-28-0	Benzoic acid, 4-nitroso-, methyl ester	403.15	
13170-43-9	Magnesium, chloro[(trimethylsilyl)methyl]-	379.25	
131747-25-6	Hexadecanoic acid, 11-[[O-6-deoxy-4-O-[(2E)-2-methyl-1-oxo-2-buten-1-yl]-β-D-glucopyranosyl-(1→4)-O-6-deoxy-2-O-[(2S)-2-methyl-1-oxobutyl]-α-L-mannopyranosyl-(1→2)-O-β-D-glucopyranosyl-(1→2)-6-deoxy-β-D-glucopyranosyl]oxy]-, intramol. 1,3′′′-ester, (11S)-	405.15	
131747-42-7	6-Trifluoromethyl-2-pyridinecarboxylic acid	429.65	
13177-71-4	5,6-Dihydrofuro[2,3-d]pyridazine-4,7-dione	568.15	
13178-99-9	3-Chloro-6-methyl-2-phenyl-4H-1-benzopyran-4-one	408.95	
131786-48-6	5-Methyl-2-(3-pyridinyl)-4-thiazolol	494.15	
13182-60-0	2-(1-Methylethyl)-4-(methylthio)quinazoline	310.65	
13182-75-7	3-(Phenylmethyl)-1,2,4-triazolo[3,4-b][1,3,4]thiadiazol-6-amine	463.15	
131833-93-7	2,2-Bis[2-[4(S)-tert-butyl-1,3-oxazolinyl]]propane	355.15	
13187-38-7	5-Chloro-2-methoxy-2,4,6-cycloheptatrien-1-one	396.15	
1319-82-0	Aminocaproic acid	479.15	
13194-69-9	2-Iodo-5-methylbenzenamine	311.15	
131971-25-0	4-[[(4-Hydroxy-3-nitrophenyl)sulfonyl]amino]benzoic acid	577.65	
13198-73-7	Pyridine, 2-chloro-5-nitro-, 1-oxide	411.15	
131984-76-4	13,14-Dihydro-13-methyl[1,3]benzodioxolo[5,6-c]-1,3-dioxolo[4,5-i]phenanthridin-5-ol	482.65	
131984-77-5	13,14-Dihydro-5-methoxy-13-methyl[1,3]benzodioxolo[5,6-c]-1,3-dioxolo[4,5-i]phenanthridin-7-ol	493.15	
131986-05-5	4-Acetyl-1-naphthalenecarboxylic acid	457.15	
132-13-8	α-Ribazole	471.65	
132-28-5	[1,1′-Biphenyl]-2-ol, 2,2′,2′′-phosphate	371.15	581.9
13200-86-7	N-Formyl-L-tyrosine	443.65	
132057-06-8	Ethyl 2-chloro-3-[2-chloro-5-(1,3,4,5,6,7-hexahydro-1,3-dioxo-2H-isoindol-2-yl)phenyl]-2-propenoate	386.15	
13208-32-7	N-(3-Chlorophenyl)-N′-(4-chlorophenyl)urea	496.65	
13208-64-5	N-(4-Chlorophenyl)-N′-propylurea	383.15	
13209-16-0	1,2-Bis(dibromomethyl)-4-nitrobenzene	399.65	
13209-31-9	4-Chloro-1,2-benzenedicarboxaldehyde	351.15	
13209-35-3	4-Nitro-1,2-benzenedicarboxaldehyde	434.15	
13209-45-5	Estra-4,6-diene-3,17-dione	455.15	
13209-60-4	(3β,17β)-3,17-Bis(acetyloxy)androst-5-en-7-one	493.15	
132095-54-6	7-Bromo-2-tetralone	346.15	
132104-10-0	ε-Oxo-2-naphthalenehexanoic acid	342.15	
132131-24-9	2-Amino-5-iodobenzonitrile	358.65	
132160-32-8	3′-p-Hydroxypaclitaxel	466.15	
132164-93-3	1H-Imidazole, 2,3-dihydro-1,3-bis(1-oxopropyl)-	482.15	
13218-17-2	4-(Chloromethyl)-2-(5-nitro-2-furanyl)thiazole	405.65	
1322-72-1	Di-tert-butylhydroquinone	492.15	
132201-32-2	Benzenepropanoic acid, β-amino-α-hydroxy-, hydrochloride (1:1), (αR,βS)-	496.15	
132201-33-3	(2R,3S)-N-Benzoyl-3-phenylisoserine	440.15	
13221-89-1	3-Piperidinecarboxylic acid, 1-methyl-4-oxo-, methyl ester	459.15	
13223-25-1	2-Chloro-4,6-dimethoxypyrimidine	375.15	
13223-26-2	4,6-Dimethoxy-2-hydroxypyrimidine	529.15	
132272-56-1	Ethyl 6-amino-7-methylimidazo[1,2-a]pyridine-2-carboxylate	483.15	
132278-37-6	(Z)-3-Hexenyl β-primeveroside	347.65	
132289-68-0	3-(2-Thienyl)-2,5-piperazinedione	494.15	
13229-02-2	4-Amino-5-(2-chlorophenyl)-2,4-dihydro-3H-1,2,4-triazole-3-thione	425.15	
13229-59-9	2,3-Dihydro-6-methoxy-2,2-dimethyl-4H-1-benzopyran-4-one	348.15	
132296-37-8	(3S,3aS,6S,6aR,9aR,9bS)-3,3a,4,5,6,6a,9a,9b-Octahydro-3,6,9-trimethylazuleno[4,5-b]furan-2,7-dione	418.65	
1323-70-2	Di-2-naphthalenyl-1,4-benzenediamine	498.15	
13230-05-2	1-Ethyl-4-nitro-1H-imidazole	313.15	
13230-97-2	8-Oxopurine	579.15	
13232-74-1	Hexanitrobenzene	527.15	
132334-40-8	N-Acetyl-N-(4-methyl-5-oxazolyl)acetamide	312.15	
132372-76-0	5-[(2-Ethoxyphenyl)methyl]-2H-tetrazole	398.65	
1323952-12-0	1,1-Dimethylethyl 4-(5-chloro-2-pyrimidinyl)-1-piperazinecarboxylate	376.65	
13241-28-6	Chrysophanol 8-O-β-D-glucopyranoside	383.15	