CAS	name	Tm	Tb
14358-89-5	7H-Purine-7-acetic acid, 1,2,3,6-tetrahydro-1,3-dimethyl-2,6-dioxo-, compd. with 2-amino-2-(hydroxymethyl)-1,3-propanediol (1:1)	388.15	
1436-34-6	2-Butyloxirane	367.15	382.65
1436-43-7	2-Quinolinecarbonitrile	368.15	433.15
14362-12-0	2,2′-Methylenebis[4,6-bis(1,1-dimethylethyl)phenol]	418.9	
14362-31-3	Chlorcyclizine hydrochloride	499.65	
14366-10-0	2,3-Butanedione, 1-chloro-, 2-oxime	362.65	
14366-73-5	1-Chloro-4-[(2-chloroethyl)thio]benzene	307.15	
14367-47-6	4-[Ethyl[2-(4-methoxyphenyl)-1-methylethyl]amino]-1-butanol	423.65	
14368-49-1	4-Nitrobenzenediazonium	427.15	
1437-15-6	2,2′-(1,2-Ethenediyl)bis[pyridine]	391.65	428.15
1437-89-4	4-Methyl-2-thiazolidinethione	371.9	
1437-91-8	4-Ethyl-2-thiazolidinethione	324.4	
14370-74-2	Ethyl 3-hydroxy-1H-indole-2-carboxylate	389.15	
14371-10-9	trans-Cinnamaldehyde	265.65	
14371-13-2	4-Methoxybenzaldehyde 2,2-dimethylhydrazone	330.65	
14371-82-5	2-Nitro-4-(trifluoromethyl)benzenethiol	308.65	
14371-84-7	Bis(4-methoxy-2-nitrophenyl) disulfide	432.15	
14372-64-6	6-Propoxy-2-benzothiazolamine	411.15	
14374-77-7	Willemite	1785.15	
14375-84-9	Tetracarbonyl(triphenylarsine)iron	451.15	
14376-16-0	Sulfaloxic acid	435.65	
14376-79-5	3,3,5,5-Tetramethylcyclohexanone		469.65
14377-19-6	4-Butylbenzeneacetic acid	352.65	
14379-43-2	N-(1-Oxooctadecyl)-L-leucine	366.15	
14379-54-5	N2,N6-Bis(1-oxododecyl)-L-lysine	393.4	
14379-56-7	N-(1-Oxododecyl)-L-serine	376.4	
1438-14-8	2-(1-Methylethyl)oxirane		354.15
1438-16-0	3-Aminorhodanine	365.15	
1438-30-8	Netropsin	445.15	
1438-66-0	(+)-Larixol	374.15	
1438-74-0	P-Ethenylphosphonic dichloride	215.15	
1438-79-5	Vinylpentamethyldisiloxane		393.15
1438-82-0	Pentamethyldisiloxane		359.65
1438-92-2	1-(2-Furanyl)-1,2-propanedione	337.65	
1438-94-4	1-Furfurylpyrrole		350.15
14381-42-1	2,3-Dihydro-1H-indene-1-carboxylic acid	332.65	
14383-51-8	Nortropine hydrochloride	556.15	
14383-60-9	Acetylamphetamine	340.15	
14387-10-1	4-Ethylbenzeneacetic acid	362.15	
14387-17-8	Benzenemethanol, 3,5-bis(1,1-dimethylethyl)-4-hydroxy-, 1-acetate	371.35	
14387-30-5	1,1′-Dimethyl 4,4′-oxybis[benzoate]	411.65	
14389-38-9	Octahydro-1-methyl-2(1H)-azecinone		354.65
1439-07-2	trans-Stilbene oxide	342.65	
1439-36-7	1-(Triphenylphosphoranylidene)-2-propanone	474.15	
1439-41-4	Tris(2-cyanoethyl)phosphine oxide	445.65	
1439-43-6	1-(4-Nitrophenyl)-2-(triphenylphosphoranylidene)ethanone	468.15	
14392-69-9	1-(4-Hydroxyphenyl)-1-nonanone	327.65	
14396-21-5	Disiloxane, 1,3-dimethyl-	135.15	307.65
14399-14-5	2-Propenoic acid, 3-phenyl-, (2R,3R)-2-[(dichloroacetyl)amino]-3-hydroxy-3-(4-nitrophenyl)propyl ester	395.65	
144-00-3	2,4,6(1H,3H,5H)-Pyrimidinetrione, 5-ethyl-5-hexyl-, sodium salt (1:1)	399.15	
144-11-6	(±)-Trihexyphenidyl	387.8	
144-12-7	Tiemonium iodide	463.15	
144-14-9	Anileridine	356.15	
144-16-1	5-Oxo-1,3-dioxolane-4,4-diacetic acid	476.15	
144-19-4	2,2,4-Trimethyl-1,3-pentanediol	324.65	507.15
144-29-6	Piperazine citrate	457.65	
144-34-3	Carbamodithioic acid, N,N-dimethyl-, tetraanhydrosulfide with orthothioselenious acid	429.15	
144-35-4	Diphenyl pentaerythritol diphosphite	376.65	
144-41-2	Morphothion	332.15	
144-48-9	Iodoacetamide	367.65	
144-49-0	Fluoroacetic acid	308.35	438.15
144-54-7	Metam	437.65	
144-55-8	Sodium bicarbonate	320.15	
144-62-7	Oxalic acid	462.65	473.15
144-67-2	Zeaxanthin dipalmitate	372.15	
144-68-3	Zeaxanthin	488.65	
144-75-2	Sulfoxone sodium	537.15	
144-79-6	Chloro(methyl)diphenylsilane	251.15	568.15
144-80-9	Sulfacetamide	456.15	
144-82-1	Sulfamethizole	481.15	
144-83-2	Sulfapyridine	465.15	
144-87-6	As-[4-[(2-Hydroxyacetyl)amino]phenyl]arsonic acid	475.65	
144-90-1	β-Aminoisobutyric acid	454.65	
144-98-9	Allothreonine	519.65	
14400-94-3	2,3,4,6-Tetrabromophenol	386.65	
14401-10-6	L-Lysine, N6-(2,4-dinitrophenyl)-, hydrochloride (1:1)	377.15	
14401-36-6	4-Amino-5-chloro-2-methoxy-N-[2-(1-piperidinyl)ethyl]benzamide	442.65	
14401-51-5	Benzenecarboximidamide, 4-chloro-, hydrochloride (1:1)	514.65	
14401-73-1	1-(3,5-Dibromophenyl)ethanone	339.15	
14401-91-3	Pyridine, 2-methyl-, hydrochloride (1:1)	473.15	
14401-93-5	Pyridine, 4-methyl-, hydrochloride (1:1)	366.15	513.15
14402-21-2	Pyridinium, 1-hexadecyl-2-methyl-, chloride (1:1)	388.9	
14405-03-9	2-Chloro-N-[4-chloro-2-(2-chlorobenzoyl)phenyl]acetamide	431.15	
14405-45-9	Indium acetylacetonate	459.15	543.15
14406-71-4	[[2,2′-[1,2-Phenylenebis[(nitrilo-κN)methylidyne]]bis[phenolato-κO]](2-)]nickel	558.15	
1441-02-7	Phenol, 2,3,4,5,6-pentachloro-, 1-acetate	423.65	
1441-87-8	2-Hydroxybenzoyl chloride	292.15	332.15
14411-75-7	1,3-Dimethyl-2-(1-methylethyl)benzene		472.15
14419-11-5	1-(3-Chloro-2-hydroxypropyl)-2-methyl-4-nitroimidazole	425.15	
1442-06-4	4-(Methylthio)benzoyl chloride	327.15	
14423-00-8	2-(Methylamino)-1,4-naphthoquinone	505.15	
14425-64-0	1-(2-Bromoethyl)-4-methoxybenzene	453.15	
144252-71-1	HI 6	447.15	
14426-20-1	Ethanol, 2-(diethylamino)-, hydrochloride (1:1)	408.65	
14426-21-2	Diethanolamine hydrochloride	247.15	
14427-53-3	Methyl 3-oxohexadecanoate	313.25	
1443-76-1	4-Hydroxy-3,5-dimethoxybenzoic acid hydrazide	485.65	
1443-80-7	4-Acetylbenzonitrile	330.65	
14430-23-0	5,6-Dimethoxyindole	423.65	
14432-12-3	4-Amino-2-chloropyridine	364.4	
14432-16-7	2-Chloro-4-nitropyridine N-oxide	414.65	
14434-10-7	2,4,6′-Trinitrodiphenylamine	456.65	
14434-47-0	(OC-6-11)-Tris(2,2,6,6-tetramethyl-3,5-heptanedionato-κO3,κO5)chromium	400.15	
14435-88-2	2,6-Bis(4-methylphenyl)pyridine	437.65	
14437-03-7	Methyl N-[(4-methylphenyl)sulfonyl]carbamate	388.15	
14437-41-3	2-(Acetyloxy)-N-(4-chlorophenyl)-3,5-diiodobenzamide	488.65	
14437-46-8	3,5-Diiodo-4′-chlorosalicylanilide	475.15	
14439-61-3	Ro 5-4864	428.15	
14439-67-9	7-Chloro-5-(2-chlorophenyl)-1,3-dihydro-1-(2-propyn-1-yl)-2H-1,4-benzodiazepin-2-one	414.15	
14439-71-5	N-(2-Benzoylphenyl)-2-bromoacetamide	367.65	
1444-05-9	Propanedioic acid, 2,2-bis(2-cyanoethyl)-, 1,3-diethyl ester	335.15	
1444-06-0	Carbamic acid, (1-methylethyl)-, 2-[(aminothioxomethoxy)methyl]-2-methylpentyl ester	343.15	
1444-64-0	2-Phenylcyclohexanol	378.15	
1444-65-1	2-Phenylcyclohexanone	336.15	430.65
1444-94-6	Hexahydro-1H-isoindole-1,3(2H)-dione	373.15	
14440-78-9	Bicyclo[2.2.1]heptane-2,3-diol	414.15	
14442-94-5	3,5-Bis(1,1-dimethylethyl)-4-hydroxy-N-octadecylbenzenepropanamide	356.15	
14446-67-4	1-(2-Propen-1-yl)piperidine	324.65	425.15
14446-76-5	rel-(3R,5S)-1,3,5-Trimethylpiperidine		415.15
14447-18-8	Phenylmethyl 2-cyanoacetate	334.65	
14448-38-5	Hyponitrous acid	410.15	
144494-65-5	Tirofiban	497.15	
1445-23-4	2-tert-Butyl-4,5-dimethylphenol	319.15	531.65
1445-38-1	Phosphoramidic acid, N-phenyl-, diethyl ester	369.65	
1445-39-2	5-Iodo-2-pyrimidinamine	498.15	
1445-45-0	Trimethyl orthoacetate		381.15
1445-73-4	1-Methyl-4-piperidone	465.65	
1445-79-0	Trimethylgallium	254.15	328.85
14450-05-6	Pentaerythritol tetrapelargonate	285.15	
14451-99-1	2-Naphthalenesulfonic acid, 1,2,3,4-tetrahydro-2-methyl-1,4-dioxo-, compd. with 4,6-dimethyl-2(1H)-pyrimidinone (1:1)	489.15	
14452-34-7	2,4-Dimethyl-6-nitrophenol	345.15	
14456-48-5	Dysprosium bromide (DyBr3)	1154.15	
14457-70-6	Selenium chloride (SeCl2)	349.65	
14459-29-1	Hematoporphyrin	445.65	
1446-61-3	Dehydroabietylamine	317.65	523.15
14461-91-7	Cyclazodone	412.65	
14464-29-0	Acetic acid N-hydroxysuccinimide ester	404.65	
14464-46-1	Cristobalite	1986.15	2503.15
14465-68-0	Trilinolenin	273.65	
144651-06-9	Benzoic acid, 2-[[[[(4,6-dimethyl-2-pyrimidinyl)amino]carbonyl]amino]sulfonyl]-, 3-oxetanyl ester	431.15	
14466-50-3	2-Heptadecyl-4,4-bis(hydroxymethyl)-2-oxazoline	488.15	
144689-63-4	Olmesartan medoxomil	454.15	
144690-92-6	Tritylolmesartan medoxomil	376.65	
1447-14-9	2,2-Dichloro-1-methylcyclopropanecarboxylic acid	333.65	
1447-71-8	Dothiepin sulfoxide	373.65	
1447-88-7	Hispidulin	564.65	
14470-28-1	4-Methoxytrityl chloride	393.65	
144701-48-4	Telmisartan	534.15	
144702-27-2	4′-[(1,4′-Dimethyl-2′-propyl[2,6′-bi-1H-benzimidazol]-1′-yl)methyl][1,1′-biphenyl]-2-carbonitrile	454.8	
14472-14-1	4-Bromo-3-methylphenol	336.65	
14473-90-6	(2E)-3-(3-Chlorophenyl)-2-propenoic acid	436.15	
144740-54-5	Flupyrsulfuron-methyl sodium	440.65	
14476-30-3	1,2,2-Tribromopropane		463.65
14476-37-0	4-Undecanone	277.65	
14476-38-1	8-Heptadecanone	313.15	
14478-73-0	1,4-Dihydro-3,6-diphenyl-1,2,4,5-tetrazine	456.15	
1448-16-4	Octanedial, 2,7-dioxo-, N,N-dione	343.15	
1448-23-3	(1β,2α,11β,12α,15β)-11,20-Epoxy-1,2,11,12-tetrahydroxy-15-[(2S)-2-hydroxy-2-methyl-1-oxobutoxy]picras-3-en-16-one	525.65	
1448-36-8	Methyl cholate	428.15	
1448-52-8	N,N-Bis(2-chloroethyl)-4-methoxybenzenamine	324.15	
1448-62-0	Benzenecarboximidic acid, 4,4′-[1,6-hexanediylbis(oxy)]bis-, diethyl ester	404.15	
1448-87-9	2-Chloroquinoxaline	319.65	
1448-98-2	N-(Aminocarbonyl)-2-cyanoacetamide	434.15	
14483-19-3	Diopside	1988.15	
14483-21-7	(TB-5-13)-[[2,2′,2′′-(Nitrilo-κN)tris[ethanolato-κO]](3-)](2-propanolato)titanium	452.15	
14483-57-9	3-(2-Chloro-3-thienyl)-5-methyl-4-isoxazolecarboxylic acid	420.65	
14484-47-0	Deflazacort	529.15	
14484-69-6	Potassium aluminum fluoride	819.15	
14486-03-4	L-Methionylglycine	455.65	
14486-05-6	L-Alanyl-L-methionine	358.15	
14487-45-7	5-Methyl hydrogen glutamate	456.15	
14489-75-9	N-Methyl-1-naphthalenemethanamine	462.9	
144896-51-5	3,5-Dimethyl-4-(phenylmethoxy)benzaldehyde	376.65	
1449-05-4	18α-Glycyrrhetinic acid	569.15	
1449-46-3	Phosphonium, triphenyl(phenylmethyl)-, bromide (1:1)	561.15	
1449-55-4	Tetracyclohexylstannane	525.15	
1449-91-8	4-Methyl-2,6,7-trioxa-1-phosphabicyclo[2.2.2]octane	370.65	
14490-05-2	7-Methyltryptamine	399.65	
14491-59-9	Credazine	351.15	
144912-63-0	Perzinfotel	542.15	
14496-34-5	N,N-Dimethyl-2-furanmethanamine	417.15	
14497-03-1	3,3′-[[(4-Aminophenyl)sulfonyl]imino]bis[propanamide]	459.65	
144978-12-1	1-(1,1-Dimethylethyl) 2-ethyl (2S)-5-oxo-1,2-pyrrolidinedicarboxylate	326.65	
145-12-0	Oxymesterone	443.15	
145-13-1	Pregnenolone	465.15	
145-14-2	20α-Dihydroprogesterone	444.65	
145-15-3	20β-Hydroxyprogesterone	432.15	
145-41-5	Sodium dehydrocholate	511.15	
145-42-6	Sodium taurocholate	503.15	
145-54-0	Pyrrolidinium, 1-methyl-1-[1-methyl-2-oxo-2-(10H-phenothiazin-10-yl)ethyl]-, bromide (1:1)	501.65	
145-63-1	Suramin	401.15	
145-73-3	Endothall	417.15	
145-94-8	7-Chloro-2,3-dihydro-1H-inden-4-ol	365.15	
1450-14-2	Hexamethyldisilane	286.65	386.65
1450-18-6	1,1,1-Trimethyl-2,2,2-triphenyldisilane	376.65	
1450-23-3	1,1,1,2,2,2-Hexaphenyldisilane	634.15	
1450-31-3	Thiobenzophenone	326.65	
1450-63-1	1,1′,1′′,1′′′-(1,3-Butadiene-1,4-diylidene)tetrakis[benzene]	473.15	
1450-72-2	2′-Hydroxy-5′-methylacetophenone	323.15	483.15
1450-74-4	5′-Chloro-2′-hydroxyacetophenone	327.15	
1450-75-5	5′-Bromo-2′-hydroxyacetophenone	329.15	
1450-81-3	2,5-Dibromopentanoic acid	446.15	
1450-85-7	2-Mercaptopyrimidine	503.15	
1450-93-7	1H-Imidazol-2-amine, sulfate (2:1)	549.65	
14501-64-5	2-Hydroxy-9H-carbazole-3-carboxylic acid	546.65	
145022-44-2	1-Ethyl-3-methylimidazolium trifluoromethanesulfonate	263.15	662.05
14503-51-6	Tetramethylthiophene		461.15
14504-73-5	Tritoqualine	456.15	
145040-37-5	Candesartan cilexetil	436.15	
14507-51-8	(17α)-13-Ethyl-3-methoxy-18,19-dinorpregna-2,5(10)-dien-20-yn-17-ol	429.65	
14508-12-4	16-Acetylandrosta-4,16-dien-3-one	472.65	
14508-49-7	Chloropyrazine	372.65	426.65
1451-99-6	2,2,4,4,6,6,8,8-Octaethylcyclotetrasiloxane	223.15	
1452-15-9	4-Thiazolecarbonitrile	333.65	
1452-77-3	2-Pyridinecarboxamide	383.15	416.15
14520-76-4	Sulfuric acid, lithium potassium salt	1005.15	
14521-18-7	Ruthenium fluoride (RuF5)	374.15	545.65
14521-96-1	(-)-Etorphine	488.65	
14523-22-9	Rhodium, tetracarbonyldi-μ-chlorodi-	396.15	
14526-03-5	Chloroacetate	321.15	
14527-41-4	5-Thiazolecarboxylic acid	469.65	
14528-48-4	(8α,9R)-9-Chloro-6′-methoxycinchonan	422.4	
14529-12-5	5-Chloro-N-methylisatoic anhydride	386.15	
14529-53-4	2-Ethoxypyridine	395.15	
1453-24-3	1-Ethylcyclohexene	163.25	410.15
1453-25-4	1-Methylcycloheptene		409.15
1453-52-7	Methanone, dicyclopropyl-, oxime	340.15	
1453-58-3	3-Methylpyrazole	309.65	477.15
1453-82-3	Isonicotinamide	429.15	
1453-93-6	Protopanaxatriol	535.15	
1453-97-0	N,N-Dimethyl-5-(phenylmethoxy)-1H-indole-3-methanamine	411.15	
14530-33-7	α-Pyrrolidinopentiophenone	446.15	
14531-34-1	Methyl 3-oxooctadecanoate	322.35	
14531-35-2	Methyl 3-ketoeicosanoate	329.55	
14531-55-6	3,5-Dimethyl-4-nitropyrazole	396.65	
14531-84-1	6-Dehydro-19-nortestosterone	458.65	
14532-24-2	1-Hexanesulfonyl chloride	264.15	
14538-51-3	2,3-Butanediamine, N2,N3-dihydroxy-2,3-dimethyl-, sulfate (1:1)	446.15	
1454-12-2	Propanedioic acid, 2-phenyl-2-(2-pyridinylmethyl)-, 1,3-diethyl ester, hydrochloride (1:1)	440.15	
1454-53-1	3-Piperidinecarboxylic acid, 4-oxo-1-(phenylmethyl)-, ethyl ester, hydrochloride (1:1)	448.15	
1454-80-4	2,2′-Diaminobiphenyl	354.15	435.15
1454-84-8	1-Nonadecanol	336.45	483.65
1454-85-9	1-Heptadecanol	326.95	606.15
14545-72-3	Nitryl hypochlorite ((NO2)(ClO))	166.15	291.15
14547-74-1	4-Methyl-N-4-pyridinylbenzamide	453.65	
14548-31-3	1-Hexen-5-yne		343.15
14548-44-8	(4-Chlorophenyl)-3-pyridinylmethanone	366.65	
14548-45-9	(4-Bromophenyl)-3-pyridinylmethanone	396.9	
14548-46-0	4-Benzoylpyridine	345.15	588.15
14548-47-1	(4-Methoxyphenyl)-4-pyridinylmethanone	393.15	
14548-48-2	4-(4-Chlorobenzoyl)pyridine	381.65	
14548-59-5	1,1′,1′′-[Methylidynetris(oxy)]tris[2,2,2-trinitroethane]	400.95	274.95
14548-84-6	Ammonium behenate	440.15	
14548-85-7	2-Butenedioic acid (2E)-, ammonium salt (1:2)	521.65	
1455-18-1	3-Methylbenzothiophene	233.49	
1455-20-5	2-Butylthiophene		454.65
1455-21-6	1-Nonanethiol	253.05	493.15
1455-42-1	β3,β3,β9,β9-Tetramethyl-2,4,8,10-tetraoxaspiro[5.5]undecane-3,9-diethanol	462.65	
1455-77-2	3,5-Diamino-1,2,4-triazole	478.15	
1455-87-4	7-Dimethylamino-4-nitrobenz-2-oxa-1,3-diazole	488.65	
145508-78-7	Icopezil	434.15	
145514-04-1	Amdoxovir	511.15	
14556-46-8	(±)-Bupranolol	494.15	
14556-98-0	5-(Aminosulfonyl)-4-chloro-2-hydroxybenzoic acid	532.15	
14559-79-6	5H-Pyrido[2,3-b][1,5]benzodiazepin-5-one, 6-[2-(dimethylamino)propyl]-6,11-dihydro-, hydrochloride (1:1)	508.15	
1456-21-9	2,5-Diphenyl-1,3,4-thiadiazole	367.65	
1456-22-0	5-Hydroxy-3-phenyl-1,2,4-oxadiazole	471.15	
1456-56-0	3-[2-(8-Quinolinyl)diazenyl]-2,4-pentanedione	475.15	
1456-72-0	2-Methyl-5-phenyl-1,3,4-thiadiazole	380.15	
14561-93-4	3-(2-Chlorophenyl)-2-cyano-2-propenoic acid ethyl ester	326.15	
14562-04-0	2-[[(4-Methylphenyl)sulfonyl]oxy]acetonitrile	320.15	
145657-29-0	3-[(2-Nitrophenyl)amino]-2-cyclohexen-1-one	453.15	
14567-73-8	Tremolite (Ca2[(Mg0.9-1Fe0-0.1)4.5-5Al0-0.5](Si7.5-8Al0-0.5)(OH)2O22)	1313.15	
14569-71-2	1,3-Bis(4-nonylphenoxy)-2-propanol	533.15	
14569-76-7	Acetic acid, chloro-, 2-butyne-1,4-diyl ester	336.2	
1457-46-1	3-Phenylrhodanine	465.65	
1457-47-2	3-Allylrhodanine	320.15	
1457-85-8	Ethyl oxanilate	338.65	553.15
14572-89-5	4-Amino-α-methylbenzenemethanol	333.65	
14575-59-8	1-Phenyl-1H-1,2,4-triazole-3,5-diamine	447.65	
14575-84-9	Bicyclo[2.2.1]heptane-7-methanesulfonic acid, 2-bromo-4,7-dimethyl-3-oxo-, ammonium salt (1:1), (1S,2S,4R,7R)-	542.15	
14575-92-9	(1S,2S,4R,6S)-2,7,7-Trimethyl-3-oxatricyclo[4.1.1.02,4]octane	346.35	
14575-93-0	(1S,2S,5R)-2,6,6-Trimethylbicyclo[3.1.1]heptan-3-one		485.15
14579-03-4	Cyclopentyltrichlorosilane		451.65
14579-91-0	1-(Chloromethyl)-N-[(chloromethyl)dimethylsilyl]-1,1-dimethylsilanamine		377.15
14579-97-6	Acetic acid 2-(4-bromophenyl)hydrazide	434.15	
1458-01-1	Methyl 3,5-diamino-6-chloropyrazine-2-carboxylate	484.15	
1458-18-0	2-Pyrazinecarboxylic acid, 3-amino-5,6-dichloro-, methyl ester	506.65	
14580-01-9	Butanedioic acid 1-(2-phenylhydrazide)	421.65	
14580-22-4	1-(2-Chlorophenyl)-3-methyl-5-pyrazolone	472.15	
145821-59-6	Tiagabine hydrochloride	465.15	
14586-40-4	Pyridinium, 1-hexadecyl-3-methyl-, chloride (1:1)	339.65	
1459-00-3	1-Bromo-2-phenylpropane	213.85	461.65
1459-09-2	Hexadecylbenzene	300.15	658.15
1459-10-5	Tetradecylbenzene	289.3	632.15
1459-93-4	Dimethyl isophthalate	340.65	555.15
14593-04-5	γ-Aminobenzenepropanol	347.9	
14593-43-2	Allyl benzyl ether		477.65
14595-54-1	Exaltenone	314.65	
14596-82-8	Peroxide, bis(3-thienylcarbonyl)	393.15	
146-04-3	8-Hydroxy-4-(2-hydroxyacetyl)-1H-2-benzopyran-1-one	449.15	
146-06-5	Quinine carbonate	441.65	
146-17-8	Flavin mononucleotide	468.15	
146-22-5	Nitrazepam	498.15	
146-28-1	1-Piperazineethanol, 4-[3-(2-chloro-10H-phenothiazin-10-yl)propyl]-, 1-acetate, hydrochloride (1:2)	497.15	
146-37-2	Quinolinium, 4-amino-1-dodecyl-2-methyl-, acetate (1:1)	443.65	
146-48-5	Yohimbine	514.15	
146-54-3	Triflupromazine	589.15	
146-56-5	Fluphenazine hydrochloride	509.15	
146-68-9	Iodonitrotetrazolium violet	502.15	
146-72-5	3-O-Methylglucose	431.15	
146-77-0	2-Chloroadenosine	408.15	
146-78-1	2-Fluoroadenosine	473.15	
146-80-5	Xanthosine	418.65	
146-81-6	2-[4-(1,1-Dimethylethyl)benzoyl]benzoic acid	425.65	
146-84-9	Silver picrate	569.15	
146-92-9	Adenosine N1-oxide	428.15	
1460-02-2	1,3,5-Tri-tert-butylbenzene	346.15	395.65
1460-16-8	Cycloheptanecarboxylic acid	370.9	532.15
1460-18-0	Pentadecanedioic acid	387.75	
1460-34-0	(±)-3-Methyl-2-oxovaleric acid	303.15	
1460-43-1	3-Amino-2,4,6-triiodobenzenemethanol	423.15	
1460-46-4	α-Cyclopropyl-α-hydroxybenzeneacetic acid	364.65	
1460-57-7	trans-1,2-Cyclohexanediol	375.65	390.15
14602-62-1	1,1,2-Tribromopropane		473.65
1461-22-9	Tributyltin chloride	254.15	
1461-23-0	Bromotributylstannane	393.15	436.15
1461-25-2	Tetrabutyltin	176.15	
1461-97-8	trans-1,2-Cyclopentanedicarboxylic acid	433.65	
14610-11-8	2-(Ethylthio)-1H-benzimidazole	449.15	
14610-37-8	N,2-Dimethyl-2-propanamine		332.15
146100-02-9	Macranthoside B	534.15	
14611-51-9	Selegiline	411.4	
14611-52-0	Selegiline hydrochloride	414.65	
14611-70-2	Thiocyanic acid, 3,5-dichloro-4-hydroxyphenyl ester	371.65	
14613-30-0	Propanoic acid, 2-(4-chlorophenoxy)-2-methyl-, magnesium salt (2:1)	600.15	
14617-17-5	1-Piperidinepropanol, α-phenyl-α-tricyclo[2.2.1.02,6]hept-3-yl-, hydrochloride	515.15	
14617-85-7	p-Nitrophenyl myristate	328.15	
14617-92-6	Butanoic acid, 4-methylphenyl ester		515.65
14618-10-1	3H-1,2-Benzoxathiole, 5-nitro-, 2,2-dioxide	418.15	
14618-47-4	N-(2,4-Dimethylphenyl)-2,2,2-trifluoroacetamide	364.15	
14618-65-6	Thiodiglycolamide	421.15	
14619-86-4	1-(Dicyanomethylene)acenaphthen-2-one	513.15	
1462-03-9	1-Methylcyclopentanol	309.15	409.15
1462-52-8	3-(Dodecylthio)propanoic acid	334.65	
1462-54-0	151L	356.15	
1462-55-1	2-(Dodecylthio)ethanol	301.65	
1462-73-3	(+)-Amphetamine hydrochloride	427.15	
1462-84-6	2,3,6-Trimethylpyridine	416.65	444.75
1462-86-8	3-Aminopicolinic acid	483.15	
14621-11-5	2,2,4,4,6,6,8,8-Octabromo-2λ5,4λ5,6λ5,8λ5-1,3,5,7,2,4,6,8-tetrazatetraphosphocine	475.15	
14622-13-0	Dodecanoic acid, lithium salt (1:1)	499.65	
14628-35-4	(2Z)-2-Butenedioic acid 1,4-dihydrazide	468.65	
14628-80-9	N,N-Diethylimidodicarbonic diamide	411.65	
14628-90-1	2-Methoxy-5-nitro-2,4,6-cycloheptatrien-1-one	505.15	
1463-10-1	5-Methyluridine	457.15	
1463-17-8	2,8-Dimethylquinoline	300.15	528.45
14630-40-1	1,1′-(1,2-Ethynediyl)bis[1,1,1-trimethylsilane]	299.15	407.15
14631-08-4	2-Chloro-4,5-pyrimidinediamine	493.15	
14634-93-6	(T-4)-Bis(N-ethyl-N-phenylcarbamodithioato-κS,κS′)zinc	478.15	
1464-33-1	4′-O-Methylpyridoxine	479.15	
1464-42-2	Selenomethionine	538.15	
1464-44-4	Phenyl β-D-glucopyranoside	450.15	
1464-53-5	Diepoxybutane	254.15	411.15
14641-93-1	α-D-Lactose	511.15	
146426-40-6	Alvocidib	325.65	
14644-61-2	Zirconium sulfate	683.15	
146478-72-0	(2Z,4S)-4-(Acetyloxy)-N-[(2R,3R,5S,6S)-6-[(2E,4E)-5-[(3R,4R,5R,7S)-4,7-dihydroxy-7-methyl-1,6-dioxaspiro[2.5]oct-5-yl]-3-methyl-2,4-pentadien-1-yl]tetrahydro-2,5-dimethyl-2H-pyran-3-yl]-2-pentenamide	340.65	
14649-03-7	(-)-α-Methylbenzyl isocyanate	338.15	
1465-25-4	N-1-Naphthylethylenediamine dihydrochloride	462.15	
1465-26-5	Sarcolysin	456.65	
1465-76-5	1-tert-Butyl-4-piperidinone	366.15	
14650-81-8	(T-4)-Bis[2-(amino-κN)benzenethiolato-κS]zinc	555.15	
14653-91-9	4-Methyl-N-(methylsulfonyl)benzenesulfonamide	392.65	
14657-64-8	2-Carboxyethyl(phenyl)phosphinic acid	429.65	
14658-94-7	1,3-Dichloroazulene	359.4	