CAS	name	Tm	Tb
26853-31-6	1-Palmitoyl-2-oleoyl-sn-glycero-3-phosphocholine	270.15	
26856-30-4	Hexyne		345.15
2686-99-9	3,4,5-Trimethacarb	382.15	
26861-87-0	1,3,4-Thiadiazol-2-amine, hydrochloride (1:1)	422.65	
26863-15-0	Pyridinium, 1-(2,4-dinitrophenyl)-4-phenyl-, chloride (1:1)	459.65	
26864-56-2	Penfluridol	379.15	
2687-12-9	Cinnamyl chloride	308.15	
2687-25-4	2,3-Diaminotoluene	336.65	528.15
2687-27-6	4,4′-[1,3-Phenylenebis(1-methylethylidene)]bis[benzenamine]	382.15	
2687-41-4	N-[4-(4-Aminophenoxy)phenyl]acetamide	405.15	
2687-43-6	O-Benzylhydroxylamine hydrochloride	505.65	
2687-45-8	Ethanamine, N,N-diethyl-, N-oxide	438.15	
2687-91-4	N-Ethyl-2-pyrrolidone	361.15	370.15
2687-94-7	N-Octylpyrrolidone	248.15	
2687-96-9	N-Dodecyl-2-pyrrolidone		476.65
2687-97-0	1-(2-Propen-1-yl)-2-pyrrolidinone	463.65	
26872-84-4	N-Cyclohexyl-β-alanine	444.65	
26878-12-6	Ethyl 9H-fluorene-9-carboxylate	311.15	
26878-30-8	2,5-Pyridinediamine, N2-phenyl-, hydrochloride (1:1)	494.15	
26878-37-5	Ethanol, 2-[(5-amino-2-pyridinyl)amino]-, hydrochloride (1:2)	451.9	
2688-48-4	Homogentisic acid lactone	513.15	
2688-77-9	(+)-Laudanosine	362.15	
2688-84-8	2-Phenoxyaniline	318.95	581.15
26886-05-5	3,5-Bis(1-methylethyl)phenol	375.65	
2689-63-6	Phosphonium, (1-methyl-2-oxo-2-phenylethyl)triphenyl-, bromide (1:1)	518.4	
2689-68-1	3-Thiophenecarboxylic acid, tetrahydro-4-oxo-, methyl ester	310.65	
2690-08-6	Dioctyl sulfide		453.15
269055-15-4	Etravirine	529.15	
26907-37-9	N,N′-Bis(1,3,4-thiadiazol-2-yl)methanediamine	470.65	
2691-41-0	Octogen	551.15	
2691-45-4	Diethylaminoethoxyhexestrol	320.15	
2691-46-5	1-Piperidineacetic acid, α-phenyl-, 2-(diethylamino)ethyl ester, hydrochloride (1:2)	467.65	
26913-06-4	Polyethylenimine	331.65	
26915-72-0	Polyethylene glycol methyl ether methacrylate	378.15	
26921-17-5	Timolol maleate	475.15	
2693-46-1	3-Aminofluoranthene	389.15	
26932-05-8	1-[4-Hydroxy-3-(3-methyl-2-buten-1-yl)phenyl]ethanone	340.15	
26934-29-2	Thiazolium, 4,5-dihydro-2,3-dimethyl-, iodide (1:1)	511.65	
26944-48-9	Glibornuride	466.65	
26946-33-8	4,4′-Diamino-2,2′-dinitrodiphenylmethane	475.15	
26946-66-7	1-Methoxy-4-(1-methoxy-1-methylethyl)-1-methylcyclohexane		504.15
2695-37-6	Sodium 4-styrenesulfonate	573.15	
2695-48-9	8-Bromo-1-octene		368.65
26952-13-6	Tetradecene		513.15
26954-85-8	2-[2-(3,4-Dimethoxyphenyl)acetyl]-4,5-dimethoxybenzeneacetic acid	426.15	
2696-84-6	4-Propylaniline	387.4	498.15
2696-92-6	Nitrosyl chloride	208.65	267.65
26961-27-3	2-Amino-4,5-dimethoxybenzonitrile	365.9	
26962-50-5	2,2,4-Trihydroxychalcone	461.15	
26964-24-9	6-Methoxyflavone	427.15	
26964-26-1	8-Methoxy-2-phenyl-4H-1-benzopyran-4-one	472.65	
26964-29-4	3,5,7-Trimethoxyflavone	438.65	
26966-75-6	Methyl-o-phenylenediamine	514.15	
26967-76-0	Tris(isopropylphenyl) phosphate	248.15	
26973-24-0	Ceftezole	428.15	
2698-39-7	Propyl 2-(4-chloro-2-methylphenoxy)acetate	293.15	
2698-40-0	MCPA isopropyl ester	296.15	
2698-41-1	2-Chlorobenzylidenemalononitrile	368.65	585.65
2698-42-2	2-Bromobenzylidenemalononitrile	363.4	
2698-43-3	(2-Fluorobenzylidene)malononitrile	391.75	
26981-81-7	N,N-Diethyl-1-heptanamine		471.15
26983-52-8	Biphenol	547.15	
26988-61-4	S-(Triphenylmethyl)-L-cysteinylglycine	393.15	
2699-11-8	1,1′-Cyclohexylidenebis[hydroperoxide]	344.65	
2699-79-8	Sulfonyl fluoride	137.33	217.77
26998-80-1	Trimethylphenol	342.65	
26999-06-4	Monobutyrin		412.65
270-82-6	Benzo[c]thiophene	323.65	
2700-16-5	Ethanaminium, N,N-diethyl-N-methyl-, bromide (1:1)	568.65	
2700-22-3	Benzylidenemalononitrile	357.15	
2700-23-4	4-Nitrobenzylidenemalononitrile	433.65	
2700-47-2	1-(6-Methoxy-2-naphthalenyl)-1-propanone	382.15	
27007-85-8	1-Thia-4,8-diazaspiro[4.5]decan-3-one, 8-[3-(2-chloro-10H-phenothiazin-10-yl)propyl]-, hydrochloride (1:1)	536.15	
2701-50-0	(1β,2β)-17-(Acetyloxy)-1,2-dihydro-3′H-cyclopropa[1,2]pregna-1,4,6-triene-3,20-dione	553.65	
27012-22-2	5-Methyl-2-phenylpyridine	553.15	
27013-91-8	α-Hederin	607.65	
27014-85-3	1,3-Benzenedicarboxylic acid, polymer with 1,2-ethanediol and hexanedioic acid	363.15	
27016-73-5	Cobalt arsenide (CoAs)	1473.15	
27018-76-4	1-(Phenylmethyl)-1H-indole-3-carboxylic acid	468.65	
2702-44-5	Methyl 4-[2-(5,6-dimethyl-2-benzoxazolyl)ethenyl]benzoate	473.65	
2702-58-1	Methyl 3,5-dinitrobenzoate	381.15	
2702-72-9	Sodium (2,4-dichlorophenoxy)acetate	436.65	
27025-41-8	Oxidized glutathione	444.15	
27029-05-6	Propylene-tetrafluoroethylene copolymer	653.15	
2703-27-7	4-[2-(4-Chlorophenyl)diazenyl]phenol	432.65	
27031-08-9	Sulfaguanole	507.65	
27032-78-6	2,4-Dioxohexahydro-1,3,5-triazine	518.15	
27035-30-9	Oxametacin	454.65	
27043-05-6	2-Ethyl-3,?-dimethylpyrazine		453.65
27046-19-1	4-Ketocyclophosphamide	425.15	
27048-28-8	N-(4-Chlorophenyl)-2-pyridinemethanamine	359.95	
27058-18-0	[4-(1H-Indol-3-yl)-1(4H)-pyridinyl]phenylmethanone	400.15	
27058-84-0	2-Propanol, 1-(2-methoxyphenoxy)-3-[(1-methylethyl)amino]-, hydrochloride (1:1)	384.15	
27059-74-1	10H-Phenothiazine-10-ethanamine, N,N,α-trimethyl-, (2Z)-2-butenedioate (1:1)	424.65	
27059-94-5	N-Iodoacetamide	416.15	
2706-38-9	N-[(Phenylmethoxy)carbonyl]-L-leucylglycine	388.15	
2706-50-5	(±)-Amphetamine hydrochloride	420.15	
2706-56-1	2-Pyridineethanamine	472.15	404.65
2706-91-4	Perfluoropentanesulfonic acid		498.15
27060-75-9	4-Bromo-3-methylanisole	289.65	
27060-91-9	Flutazolam	417.65	
27064-95-5	Piperazine, 1-[bis(4-fluorophenyl)methyl]-4-(3-phenyl-2-propen-1-yl)-, hydrochloride (1:2)	524.65	
27072-45-3	Fluorescein isothiocyanate	383.15	
27073-87-6	2-Propanone, homopolymer	338.15	
27074-03-9	1,2-Dihydro-6-hydroxy-1,4-dimethyl-2-oxo-3-pyridinecarbonitrile	549.15	
27079-29-4	Methyl N-[[(2-aminophenyl)amino]thioxomethyl]carbamate	457.65	
2708-77-2	4-Fluoroglutamic acid	458.15	
2708-97-6	1,2,3,4-Tetrafluoro-5,6-diiodobenzene	323.65	
27081-10-3	Cycloheptatrienylium, tetrafluoroborate(1-) (1:1)	515.15	
27083-55-2	Adipic acid-1,4-butanediol-ethylene glycol-MDI copolymer	453.15	
27090-72-8	3,3′-(1,2-Ethanediyl)bis[tetrahydro-5-methyl-2H-1,3,5-thiadiazine-2-thione]	459.15	
27096-30-6	Diethylammonium nitrate	378.15	
27096-31-7	Ethanamine, N,N-diethyl-, nitrate (1:1)	385.15	
27098-03-9	(-)-Botryodiplodin	315.15	
27099-22-5	6-Methyl-1H-benzimidazole-2-acetonitrile	357.15	
271-29-4	1H-Pyrrolo[2,3-c]pyridine	410.15	
271-34-1	1H-Pyrrolo[3,2-c]pyridine	385.15	
271-44-3	Indazole	421.15	542.15
271-58-9	2,1-Benzisoxazole		488.15
271-63-6	1H-Pyrrolo[2,3-b]pyridine	380.15	
271-80-7	1H-Pyrazolo[3,4-d]pyrimidine	486.65	
271-89-6	Benzofuran		447.15
271-95-4	1,2-Benzisoxazole	412.15	373.15
27104-73-0	Methyl 3-isoquinolinecarboxylate	361.65	
27107-79-5	3-Cyclohexene-1-carboxylic acid, 2-(dimethylamino)-1-phenyl-, ethyl ester, hydrochloride (1:1), (1R,2S)-rel-	432.15	
2711-20-8	N′-[2-Chloro-5-(trifluoromethyl)phenyl]-N,N-dimethylurea	371.65	
2711-58-2	1H-Indole-3-ethanamine, 5-fluoro-, hydrochloride (1:1)	555.15	
27113-23-1	[8]-Paradol	316.15	
27115-50-0	p-Methylhippuric acid	434.65	
27115-74-8	5-(1-Methylethyl)-1,3,4-thiadiazol-2-amine	459.65	
2712-78-9	Bis(trifluoroacetoxy)iodobenzene	396.15	
27124-12-5	Methyl (4aS,5S,6R,7R,8aS)-7-(acetyloxy)decahydro-6-methoxy-2-[2-(5-methoxy-1H-indol-3-yl)ethyl]-3-oxo-5-isoquinolinecarboxylate	414.65	
27126-76-7	[Hydroxy(tosyloxy)iodo]benzene	408.15	
27126-93-8	3,5-Bis(trifluoromethyl)benzonitrile	289.65	
27129-87-9	3,5-Dimethylbenzyl alcohol		492.65
2713-31-7	2,5-Difluorophenol	314.9	
2713-34-0	3,5-Difluorophenol	328.12	
27135-32-6	1,3-Benzenedicarboxylic acid, polymer with 1,4-benzenedicarboxylic acid, 1,6-hexanediamine and hexanedioic acid	585.15	
27136-15-8	Butyl acrylate-methyl methacrylate-styrene copolymer	365.15	
27136-65-8	Azelaic acid-hexamethylenediamine copolymer	482.65	
27137-85-5	Trichloro(dichlorophenyl)silane		533.15
27143-44-8	2,4-Hexadienoic acid, (2E,4E)-, compd. with 8-quinolinol (1:1)	339.15	
27147-71-3	2-Methylhexadecanoic acid	327.15	
27149-59-3	Methyl 2-cyano-3-(4-methoxyphenyl)-2-butenoate	359.65	
2715-70-0	9-Butyl-9H-purin-6-amine	389.15	
27151-01-5	4,5-Dihydro-N-phenyl-2-oxazolamine	384.15	
27151-54-8	4-[(4-Methoxyphenyl)amino]phenol	380.65	
27151-57-1	4,4′-Dimethoxy-N-methyldiphenylamine	372.15	
27154-43-4	Piperidone	313.15	
27157-66-0	Decylphenol	331.15	
2716-10-1	4,4′-[1,4-Phenylenebis(1-methylethylidene)]bis[benzenamine]	436.15	
27160-08-3	4-(2-Chloroethyl)-1,2-dimethoxybenzene	311.65	
2717-42-2	1,2,4-Trimethylnaphthalene	328.65	419.15
27172-85-6	Phenylalanine, hydrochloride (1:1)	488.15	
27176-87-0	Dodecylbenzenesulfonic acid	283.15	
2718-25-4	(5bR,13bR,15S)-5b,6,7,8,13b,15-Hexahydro-15-methoxy-6-methyl[1,3]dioxolo[4,5-h]-1,3-dioxolo[7,8][2]benzopyrano[3,4-a][3]benzazepine	529.9	
2718-77-6	2-(Diphenylamino)-5-[2-(3-ethyl-2(3H)-benzoxazolylidene)ethylidene]-4(5H)-thiazolone	522.15	
2718-78-7	2-(Diphenylamino)-5-[2-(3-ethyl-2(3H)-benzothiazolylidene)ethylidene]-4(5H)-thiazolone	529.15	
27189-59-9	Tributyltin nicotinate	426.15	
2719-07-5	Acetic acid, 2-(2,4-dinitrophenyl)hydrazide	472.65	
2719-08-6	Methyl N-acetylanthranilate	372.65	
2719-13-3	Acetic acid, 2-(4-nitrophenyl)hydrazide	479.15	
2719-14-4	N-(4-Methyl-3-nitrophenyl)acetamide	421.65	
2719-15-5	N-(2-Methyl-4-nitrophenyl)acetamide	423.65	
2719-21-3	N-(4-Acetylphenyl)acetamide	444.15	
2719-23-5	N-2-Thiazolylacetamide	481.15	
2719-27-9	Cyclohexanecarbonyl chloride		453.15
2719-32-6	4-Cyanophenyl isothiocyanate	394.15	
2719-52-0	2-Phenylpentane		472.15
27193-28-8	Octylphenol	317.4	580.15
27193-86-8	Dodecylphenol		597.15
27195-16-0	Saccharose distearate	350.15	
27196-00-5	Tetradecanol	311.15	562.15
272-12-8	Thieno[2,3-c]pyridine	327.65	
272-14-0	Thieno[3,2-c]pyridine	315.65	
272-49-1	1H-Pyrrolo[3,2-b]pyridine	400.65	
27200-12-0	(+)-Dihydromyricetin	513.15	
27205-03-4	2,2′-[Sulfonylbis(4,1-phenyleneoxy)]bis[ethanol]	457.15	
27205-99-8	Phosphorodithioic acid, O,O-bis(1-methylethyl) ester, sodium salt (1:1)	462.15	
27208-37-3	Cyclopenta[cd]pyrene	448.15	
27208-80-6	Polydatin	498.65	
2721-22-4	δ-Tetradecalactone		563.15
2721-23-5	(RS)-γ-Tetradecalactone	303.65	
27210-57-7	Miltirone	371.15	
27213-78-1	tert-Butylcatechol	328.15	
27214-38-6	Monomyristin	341.15	
27215-14-1	Neoandrographolide	447.4	
27215-38-9	Monolaurin	323.15	
27216-47-3	Sucrose monotetradecanoate	456.15	
2722-34-1	4,5-Dihydro-2-phenylthiazole	400.15	
27220-47-9	Econazole	359.95	
27220-59-3	Antimycin A4	438.15	
27223-35-4	(±)-Ketazolam	455.9	
27231-36-3	2-Mercapto-5-methylbenzimidazole	564.15	
27236-46-0	2-Methylpentene		332.65
2724-56-3	10-Methylundecanoic acid	311.65	
2724-57-4	Isotetradecanoic acid	326.6	
2724-58-5	Isostearic acid	341.3	
2724-59-6	17-Methyloctadecanoic acid	340.7	
2724-68-7	Pregn-16-ene-11,20-dione, 3-(acetyloxy)-, (3β,5α)-	457.15	
2724-69-8	N-Methyl-N′-phenylthiourea	385.15	
27241-31-2	1-(2,4,6-Trichlorophenyl)-3-amino-5-pyrazolone	496.15	
272451-65-7	Flubendiamide	492.25	
27246-81-7	3-Bromophenylhydrazine hydrochloride	502.15	
2725-22-6	2-[4,6-Bis(2,4-dimethylphenyl)-1,3,5-triazin-2-yl]-5-(octyloxy)phenol	356.9	
2725-68-0	Phosphorane, tetrachloromethyl-	405.15	
2725-81-7	6-Nitrocoumarin	446.15	
2725-82-8	1-Bromo-3-ethylbenzene		477.15
27252-69-3	Poly(oxy-1,2-ethanediyl), α-(2-chloroethyl)-ω-(2-chloroethoxy)-	331.45	
27254-36-0	Nitronaphthalene	325.15	
2726-73-0	1,12-Octadecanediol	339.65	
27262-46-0	2-Piperidinecarboxamide, 1-butyl-N-(2,6-dimethylphenyl)-, hydrochloride (1:1), (2R)-	531.15	
27262-47-1	(-)-Bupivacaine	409.15	
27262-48-2	2-Piperidinecarboxamide, 1-butyl-N-(2,6-dimethylphenyl)-, hydrochloride (1:1), (2S)-	534.55	
2728-02-1	p-Chlorophenprocoumon	460.15	
2728-04-3	N,N-Diethyl-2-methylbenzamide	322.65	
2728-05-4	N,N-Diethyl-4-methylbenzamide	326.65	
2728-78-1	N2-(2-Phenylethyl)-6-(trifluoromethyl)-1,3,5-triazine-2,4-diamine	433.15	
2728-90-7	1,2,3-Triethyl 1,3-difluoro-2-hydroxy-1,2,3-propanetricarboxylate	341.15	
27280-72-4	α-[(4-Amino-2-methoxyphenyl)methylene]benzeneacetonitrile	411.65	
27280-85-9	Pentanedioic acid, 2-oxo-, compd. with 5-hydroxy-6-methyl-3,4-pyridinedimethanol (1:1)	394.15	
2729-28-4	1,1-Dichloro-1,2,2,3,3,3-hexafluoropropane		308.15
27293-82-9	α-Ethyl-2,4,6-triiodo-3-[(1-oxobutyl)amino]benzenepropanoic acid	451.9	
27298-97-1	(αS)-4-Bromo-α-methylbenzenemethanamine	445.15	
27299-12-3	1,4-Sorbitan	388.65	
273-09-6	2,1,3-Benzoxadiazole	326.15	
273-13-2	2,1,3-Benzothiadiazole	316.15	476.15
273-15-4	2,1,3-Benzoselenadiazole	348.15	
273-21-2	Imidazo[4,5-b]pyridine	422.65	
273-53-0	Benzoxazole	304.15	455.65
273-77-8	1,2,3-Benzothiadiazole	568.15	
2730-71-4	Thiocolchicine	466.15	
27302-90-5	Oxisuran	351.65	
27304-13-8	Oxychlordane	417.15	626.15
27305-49-3	1,5-Naphthyridine, 1,5-dioxide	573.15	
2731-06-8	2-Methyltryptamine	360.15	471.15
2731-16-0	(7S)-7-Amino-6,7-dihydro-1,2,3-trimethoxy-10-(methylthio)benzo[a]heptalen-9(5H)-one	471.15	
2731-23-9	N-[(7S)-5,6,7,9-Tetrahydro-1,2,3-trimethoxy-10-(methylthio)-9-oxobenzo[a]heptalen-7-yl]formamide	532.15	
2731-73-9	3-Chloro-L-alanine	439.65	
27312-93-2	1-Propanone, 3-(diethylamino)-1-[2-(trifluoromethyl)-10H-phenothiazin-10-yl]-, hydrochloride (1:1)	437.15	
27314-13-2	Norflurazon	390.15	
27314-97-2	Tirapazamine	496.15	
27315-02-2	N-(1,4-Dioxido-1,2,4-benzotriazin-3-yl)acetamide	473.15	
27315-91-9	Pipebuzone	402.15	
27318-87-2	3-(3,5-Dimethoxyphenoxy)-1,2-propanediol	348.65	
2732-58-3	6-Ethylchrysene	399.75	
27322-34-5	Tris(1-methylethyl)benzene		507.65
27328-34-3	2-(2,2-Dimethoxyethyl)-1H-isoindole-1,3(2H)-dione	377.15	
2733-41-7	4-Nitrobenzoyl azide	344.65	
2733-88-2	Nervonic acid methyl ester	287.65	467.15
27336-23-8	1,1-Dibromo-1,2,2,2-tetrafluoroethane	161.45	320.65
2734-31-8	(1R,2R,3S,5S)-2,6,6-Trimethylbicyclo[3.1.1]heptan-3-ol	319.15	
2734-52-3	Disperse Red 19	473.95	
27342-88-7	Dodecanol	297.15	532.15
27344-43-0	P,P,P′,P′-Tetramethyl P,P′-[[1,1′-biphenyl]-4,4′-diylbis(methylene)]bis[phosphonate]	403.65	
2735-04-8	2,4-Dimethoxyaniline	306.65	
2735-05-9	2,4-Bis(chloromethyl)toluene	318.15	
2735-62-8	1-Methyl-1H-benzimidazole-2-acetonitrile	406.15	
27354-18-3	Solvent Red 169	461.15	
27355-22-2	Phthalide	482.65	
2736-21-2	1H-Indole-3-ethanamine, 6-methoxy-, hydrochloride (1:1)	493.15	
2736-23-4	5-(Aminosulfonyl)-2,4-dichlorobenzoic acid	507.15	
2736-40-5	2-Ethylbutyryl chloride		413.15
2736-73-4	2,3-Dichloro-2-propen-1-ol	353.65	
2736-80-3	2,2-Dinitro-1,3-propanediol	326.4	
27367-90-4	Niaprazine	404.15	
2737-22-6	2,4,6-Tribromo-3-hydroxybenzaldehyde	392.65	
27375-52-6	N-[4-[(2-Hydroxyethyl)sulfonyl]phenyl]acetamide	468.15	
27380-79-6	Hexanedioic acid, polymer with 1,2,3-propanetriol	433.15	
27386-01-2	5-(Methylamino)-1,3,4-thiadiazole-2(3H)-thione	464.65	
27387-87-7	3-(3,5-Dichlorophenyl)-2,4-imidazolidinedione	468.15	
2739-04-0	N-Methyl-N-(4-methylphenyl)formamide	303.15	434.65
2739-12-0	Benzenamine, N-methyl-, hydrochloride (1:1)	395.9	
2739-57-3	cis-Dehydromatricaria ester	386.65	
2739-97-1	2-Pyridineacetonitrile	297.4	
2739-98-2	Ethyl 2-pyridylacetate	409.65	
27394-81-6	5-(4-Methoxyphenyl)penta-2,4-dienal	352.65	
274-07-7	Catecholborane	285.15	
274-09-9	1,3-Benzodioxole	255.15	445.65
274-40-8	Indolizine	348.15	478.15
274-98-6	1,2,4-Triazolo[4,3-a]pyrimidine	484.65	
2740-04-7	Dimefline hydrochloride	486.65	
2740-83-2	3-(Trifluoromethyl)benzylamine	450.65	
2740-94-5	1-Benzyl-3-methyl-2-thiourea	348.15	
27406-36-6	5-Furfurylidenebarbituric acid	553.15	
2741-16-4	(1-Methylethoxy)benzene	240.15	449.95
2741-57-3	1-(Dichloromethyl)-2-(trichloromethyl)benzene	321.15	
2741-75-5	(17β)-17-Hydroxy-17-methylestr-5(10)-en-3-one	418.15	
27417-40-9	DMPD	457.65	
27425-55-4	Coumarin 7	515.15	
2743-40-0	L-Leucine, ethyl ester, hydrochloride (1:1)	392.15	
27431-62-5	N,N-Diethyl-1,4-butanediamine	430.15	
27438-39-7	1-(Morpholinomethyl)-2-naphthol	388.65	
2744-49-2	Blankophor DCB	499.15	
2745-22-4	α-(Aminomethyl)-2-furanmethanol	360.15	
2745-25-7	2-Furanacetonitrile		350.65
2745-26-8	2-Furanacetic acid	341.65	
27451-21-4	N-Hydroxy-N-(4-methylphenyl)acetamide	346.15	
27458-94-2	Isononanol	337.65	
2746-19-2	Himic anhydride	440.9	
27464-82-0	2,5-Dimethyl-1,3,4-thiadiazole	338.15	475.65
27469-53-0	Almitrine	454.15	
27469-60-9	1-[Bis(4-fluorophenyl)methyl]piperazine	362.65	
2747-05-9	4-Methylumbelliferyl acetate	423.15	
27470-51-5	Suxibuzone	399.65	
27471-60-9	Acetamide, 2-(4-butoxyphenoxy)-N-(2,5-diethoxyphenyl)-N-[2-(diethylamino)ethyl]-, hydrochloride (1:1)	413.15	
27472-21-5	3,4-Diethoxybenzeneacetonitrile	310.15	450.65
27478-34-8	Dinitronaphthalene	416.65	
27489-28-7	Acetic acid, 2-[(2-nitrophenyl)sulfonyl]-, methyl ester	392.65	
27489-60-7	N-(trans-4-Hydroxycyclohexyl)acetamide	439.15	
2749-59-9	1,3-Dimethyl-5-pyrazolone	395.15	
27490-70-6	Chlorodimethyl(2-methylpropyl)silane		405.15
274901-16-5	Vildagliptin	422.15	
27492-84-8	Methyl 4-amino-2-methoxybenzoate	432.15	
27496-82-8	Methylenebis[2-hydroxybenzoic acid]	516.65	
27499-52-1	1,4-Benzenedimethanol dimethacrylate	342.4	
275-02-5	[1,2,4]Triazolo[1,5-a]pyrimidine	415.15	
275-51-4	Azulene	372.15	
2750-76-7	Rifamide	378.15	
27507-54-6	5,5′-Oxybis[2-methyl-1H-isoindole-1,3(2H)-dione]	531.65	
2751-09-9	Troleandomycin	443.15	
2751-90-8	Tetraphenylphosphonium bromide	560.15	
27511-79-1	3-Amino-1H-pyrazole-4-carboxamide sulfate (2:1)	496.65	
27511-99-5	Eterobarb	390.15	
27512-72-7	Ethychlozate	350.15	
27514-08-5	4-Acetamidocyclohexanone	407.65	
27519-02-4	(Z)-9-Tricosene		651.15
2752-17-2	2-Aminoethyl ether		456.65
2752-19-4	[1,1′-Biphenyl]-2-ol, 2,2′′,2′′′′-phosphite	368.15	
2752-64-9	Mesaconitine	481.65	
2752-65-0	Gambogic acid	357.15	
2752-99-0	1,1′,1′′-(1,2,3-Propanetriyl) tri-(13Z)-13-docosenoate	304.9	
27522-11-8	2-Ethyl-1-pentanol		380.15
27525-74-2	3,5-Pyridinedicarboxylic acid, 2,6-dimethyl-, 3,5-dimethyl ester	374.65	
2753-45-9	Mebeverine hydrochloride	399.15	
2753-74-4	5-Ethyldihydro-5-phenyl-2-thioxo-4,6(1H,5H)-pyrimidinedione	484.65	
27530-78-5	(11β,15β)-Hetisan-11,15-diol	541.15	
27530-80-9	O-Phosphonothreonine	457.15	
27536-89-6	Benzene, ethyl-, homopolymer		533.15
2754-11-2	Morpholine, 4-ethyl-, 4-oxide	403.15	
2754-27-0	Trimethylsilyl acetate	241.15	376.65
2754-32-7	1,1′-(1,4-Phenylene)bis[1,1-dimethylsilanol]	408.15	
2754-40-7	Hexahydro-4,8-ethano-1H,3H-benzo[1,2-c:4,5-c′]difuran-1,3,5,7-tetrone	624.65	
27541-88-4	Quinonamid	485.65	
27548-93-2	Baccatin III	517.15	
2755-10-4	(9β,10α)-Pregn-4-ene-3,20-dione	428.15	
27554-26-3	Diisooctyl phthalate	269.15	643.15
27555-34-6	D-Galacturonic acid, homopolymer, compd. with (9S)-6′-methoxycinchonan-9-ol	453.15	
2756-85-6	1-Aminocyclohexanecarboxylic acid	623.15	
2756-87-8	Monomethyl fumarate	416.15	
27563-65-1	3-Chlorophthalic acid	459.65	
27563-67-3	N-Methyldodecanamide	383.15	
2757-04-2	Phenyl 3-phenyl-2-propenoate	346.15	
2757-23-5	(Chlorocarbonyl)sulfenyl chloride		371.15
2757-85-9	1,3-Dimethyl-2,4,5,6(1H,3H)-pyrimidinetetrone	493.15	
2757-90-6	Agaritine	480.15	
2757-92-8	2-(Ethylthio)benzothiazole	299.15	
27576-86-9	(1-Methyl-1-phenylethyl)phenol	347.15	
27578-60-5	1-Piperidineethanamine	341.65	
27579-33-5	Octadecanoic acid, 2,3-bis(1-oxopropoxy)propyl ester	296.65	
2758-06-7	(2-Bromoethyl)trimethylammonium bromide	408.65	
2758-18-1	3-Methyl-2-cyclopenten-1-one	349.65	430.65
27581-00-6	1-[(5,8-Dihydro-1-naphthalenyl)oxy]-3-[(1-methylethyl)amino]-2-propanol	359.65	
27588-43-8	Eprozinol dihydrochloride	437.15	
27589-33-9	Azosemide	492.65	
2759-28-6	1-Benzylpiperazine	509.65	
2759-54-8	N-(4-Chlorophenyl)propanamide	411.15	
2759-71-9	Cypromid	401.15	
27591-42-0	Oxazidione	361.15	
27591-69-1	Tilorone hydrochloride	509.15	
2760-98-7	Isophthalic dihydrazide	501.15	
27602-75-1	6-Methoxy-α-methyl-2-naphthaleneacetaldehyde	314.15	
27603-25-4	2-(Methylsulfonyl)-5-(trifluoromethyl)-1,3,4-thiadiazole	359.15	
27605-35-2	1-(Tributylstannyl)-1H-imidazole	339.15	
27605-76-1	Probenazole	411.65	
27607-36-9	2,2′-[(3,3,4,4,5,5,6,6,7,7,8,8,9,9,10,10,10-Heptadecafluorodecyl)imino]bis[ethanol]	315.15	
27607-77-8	Trimethylsilyl triflate		413.15
27608-01-1	4-Methyl-2-octanone		455.15
27610-45-3	Sodium sulfide hydrate	457.15	
27618-25-3	3-[(3-Methylphenyl)amino]propanenitrile	321.15	
27619-89-2	3,3,4,4,5,5,6,6,7,7,8,8,8-Tridecafluoro-1-octanesulfonyl chloride	298.15	