CAS	name	Tm	Tb
183208-58-4	1-(2-Bromoethyl)-1H-pyrrolo[2,3-b]pyridine	301.15	
183208-72-2	N-[4-(Trimethylsilyl)-3-butyn-1-yl]acetamide	349.15	
183209-26-9	1-Bromo-2-isocyanobenzene	313.15	
18323-56-3	N-[(Phenylmethoxy)carbonyl]-L-alanyl-L-leucinamide	461.65	
183322-18-1	4-Chloro-6,7-bis(2-methoxyethoxy)quinazoline	379.15	
183322-45-4	4-Quinazolinamine, N-(3-bromophenyl)-6,7-dimethoxy-, hydrochloride (1:1)	529.9	
18346-06-0	7-(Phenylmethyl)-7H-purine	417.65	
1835-71-8	1,1′-[Thiobis(methylene)]bis[4-nitrobenzene]	432.15	
183500-37-0	4-[(5-Formyl-1H-imidazol-1-yl)methyl]benzonitrile	408.65	
18354-57-9	1-Thieno[2,3-b]pyridin-5-ylethanone	390.15	
183557-79-1	4-(1-Pyrrolidinyl)benzamide	447.65	
18356-30-4	3-(Diphenylmethylene)dihydro-2,5-furandione	425.15	
1836-06-2	1-(3-Bromo-4-hydroxyphenyl)ethanone	385.15	
183665-63-6	(4S)-3-(1-Oxodecyl)-4-(phenylmethyl)-2-oxazolidinone	311.15	
183673-70-3	1,1-Dimethylethyl 2,4-dioxo-1,3,8-triazaspiro[4.5]decane-8-carboxylate	506.65	
18368-61-1	2-Methyl-6-nitropyridine	386.65	
18368-65-5	4-Methyl-2(1H)-pyridinethione	450.65	
18368-66-6	3-Methyl-2(1H)-pyridinethione	437.15	
18368-71-3	4-Methyl-2-nitropyridine	334.65	
18374-76-0	(-)-Rotundone		401.65
18377-50-9	Methyl 1-methoxy-1H-indole-3-carboxylate	320.15	
18378-22-8	4-Nitro-7-(1-piperidinyl)-2,1,3-benzoxadiazole	439.15	
18385-59-6	Epoxyazadiradione	465.15	
18385-73-4	3,4-Dihydro-6-methyl-2H-1-benzopyran-4-ol	314.65	
18386-10-2	2,2′-Methylenebis[1-hydroxy-3H-naphtho[2,1-b]pyran-3-one]	573.15	
18386-16-8	3,5-Dinitrotyrosine	498.15	
1839-17-4	N4-Methyl-3,4-pyridinediamine	442.15	
18397-13-2	(2S)-2-(Dimethylamino)-N-[(3R,4S,7S)-7-(1H-indol-3-ylmethyl)-5,8-dioxo-3-phenyl-2-oxa-6,9-diazabicyclo[10.2.2]hexadeca-10,12,14,15-tetraen-4-yl]-3-methylbutanamide	531.15	
18398-37-3	3,4-Dibromo-1,2-naphthalenedione	446.15	
183994-95-8	Phosphonium, [[4-(diphenylamino)phenyl]methyl]triphenyl-, bromide (1:1)	522.15	
18403-13-9	β-L-Arabinopyranoside, phenylmethyl, 2,3-dibenzoate	395.65	
184031-21-8	rel-(+)-(6R,6aS,8S,10R,10aS)-6-Ethyl-2,6,6a,7,8,9,10,10a-octahydro-2-hydroxy-6a,8,10-trimethyl-1H-[2]benzopyrano[4,3-c]pyridin-1-one	481.15	
18409-93-3	(3S,3aS,5aS,9bS)-3a,5,5a,6,7,9b-Hexahydro-3,5a,9-trimethylnaphtho[1,2-b]furan-2,8(3H,4H)-dione	405.15	
184109-84-0	4-Chloro-5-methyl-2,6-diphenylpyrimidine	391.15	
18411-75-1	(4aR,5S,6R,8aS)-5-[2-(3-Furanyl)ethyl]-3,4,4a,5,6,7,8,8a-octahydro-8a-(hydroxymethyl)-5,6-dimethyl-1-naphthalenecarboxylic acid	456.65	
18411-79-5	(1α,4aα,4bβ,10β)-7-Hydroxy-1-methyl-8-methylenegibbane-1,4a,10-tricarboxylic acid	418.15	
18414-58-9	1-Methyl-1,1-diphenylsilanecarboxylic acid	407.9	
18416-85-8	Lombricine	497.15	
18418-73-0	Silane, methylenebis[triethyl-		517.15
1842-72-4	Nonanediamide	447.15	
18422-83-8	Dihydromorin	497.15	
18423-27-3	(4S,5R)-4-(Dimethylamino)-5-hydroxyhexanal		402.15
18427-44-6	Parinaric acid	356.65	
18430-73-4	1-(2-Bromo-4-hydroxyphenyl)-1-propanone	374.65	
18436-71-0	4-Chloro-6-methylquinoline	328.15	
18437-58-6	4-Amino-2-methylpyridine	368.9	
18437-63-3	1,1-Dimethylethyl N-(4-nitrophenyl)carbamate	385.65	
18437-66-6	Carbamic acid, N-(4-chlorophenyl)-, 1,1-dimethylethyl ester	378.15	
184377-59-1	Methyl (2E)-3-[(4-methylphenyl)sulfinyl]-2-propenoate	341.65	
18438-41-0	Methyl 1-(1,2,3,4-tetrahydro-1-naphthalenyl)-1H-imidazole-5-carboxylate	336.15	
18439-99-1	1-(2-Hydroxy-4,5-dimethylphenyl)-2-phenylethanone	342.65	
1844-12-8	Diisocyanatophenoxyphosphine oxide	301.15	
1844-49-1	2-Pyridinecarboxylic acid, 6-methyl-4-nitro-, 1-oxide	428.15	
184416-83-9	2,3-Dichloro-4-pyridinamine	427.15	
18449-03-1	(T-4)-Bis[2-methoxy-6-[(phenylimino-κN)methyl]phenolato-κO]cobalt	523.15	
18449-41-7	Madecassic acid	539.65	
18450-26-5	Methyl 3-formyl-1H-indole-2-carboxylate	482.65	
18450-27-6	Ethyl 3-formyl-1H-indole-2-carboxylate	458.15	
18450-93-6	Gibbane-1,1,10-tricarboxylic acid, 4a,7-dihydroxy-8-methylene-, 1,4a-lactone, (1α,4aα,4bβ,10β)-	518.15	
18450-94-7	Gibb-2-ene-1,10-dicarboxylic acid, 4a,7-dihydroxy-1-(hydroxymethyl)-8-methylene-, 1,4a-lactone, (1α,4aα,4bβ,10β)-	486.65	
18455-25-9	2-Amino-3,6-anhydro-2,4,5,7-tetradeoxy-L-xylo-hept-4-enonic acid	495.65	
18455-58-8	2,5,5-Trimethyl-4-thiazolidinecarboxylic acid	377.15	
18456-00-3	2-Butenoic acid, 2-methyl-, (2′R,3′R,3′aS,4′S,7′S,7′aR)-decahydro-3′-hydroxy-7′,7′a-dimethyl-4-methylene-2-oxospiro[furan-3(2H),2′-[2H]inden]-4′-yl ester, (2Z)-	440.4	
18456-03-6	(-)-Bakkenolide D	473.65	
18456-04-7	Dicyclopenta[a,d]cyclooctene-4-carboxylic acid, 7-[(1S)-1,5-dimethyl-4-hexenyl]-3,5,6,6a,7,8,9,9a,10,10a-decahydro-5-hydroxy-1,9a-dimethyl-3-oxo-, (6aS,7R,9aR,10aR)-	412.15	
18456-88-7	5-Pentyl-1,3-cyclohexanedione	343.65	
184587-72-2	Mangostanol	438.15	
1846-35-1	1,2,4,5-Tetrakis(methylthio)benzene	398.15	
1846-91-9	2-Oxo-2H-1-benzopyran-3-carboxylic acid hydrazide	440.65	
18465-19-5	2-Oxoglutaramic acid	432.15	
18465-71-9	(3R,4R)-Dihydro-3,4-dihydroxy-3-methyl-2(3H)-furanone	386.15	
18467-82-8	D-Glucose, 2-amino-2-deoxy-, diethyl dithioacetal, hydrochloride	348.65	
18469-71-1	8-β-D-Glucopyranosyl-5,7-dimethoxy-2-(4-methoxyphenyl)-4H-1-benzopyran-4-one	468.65	
1847-01-4	N-(3-Chlorophenyl)-2-oxo-2H-1-benzopyran-3-carboxamide	513.15	
18472-03-2	5-Chloro-7-nitro-8-hydroxyquinoline	473.15	
18474-60-7	7-Methyl-1H-indole-2-carboxylic acid	449.15	
1848-42-6	Ethyl 2,3-dihydro-2-methyl-3-oxo-1H-indazole-1-carboxylate	350.15	
18480-14-3	5-(2-Aminoethyl)tetrahydro-1,3,5-triazine-2(1H)-thione	413.15	
184827-12-1	5,6-Dihydro-5-hydroxy-7H-cyclopenta[c]pyridin-7-one	377.15	
18483-17-5	1,3,6-Tri-O-galloyl-β-D-glucose	500.15	
18483-64-2	Mammea A/AA	361.65	
1849-05-4	2-Chloro-5,6-dinitro-1H-benzimidazole	463.65	
1849-26-9	4-(2-Phenylethynyl)phenol	364.65	
1849-54-3	3-Hydroxy-4-pyridinecarboxaldehyde	400.15	
1849-58-7	3-Chloro-2′-hydroxychalcone	377.15	
1849-69-0	2-Bromo-4,5-dichlorobenzothiazole	412.4	
1849-70-3	4,7-Dichloro-2-benzothiazolamine	538.65	
1849-72-5	4,6-Dichloro-2(3H)-benzothiazolethione	517.65	
18493-31-7	1-(4-Chlorophenyl)-3-(2,4-dimethoxyphenyl)-2-propen-1-one	396.15	
18495-14-2	2-Hydroxy-4-methylbenzonitrile	360.15	
184955-22-4	(1R,2Z,6E,10E)-3-Formyl-7,11-dimethyl-2,6,10-cyclododecatrien-1-yl 8-methoxy-6-nitrophenanthro[3,4-d]-1,3-dioxole-5-carboxylate	521.15	
18496-54-3	Benzenebutanoyl chloride	370.9	
184970-28-3	4-Bromo-2-(bromomethyl)-1-methoxybenzene	388.15	
18499-92-8	Kermesic acid	469.15	
185-73-9	1-Oxa-6-thiaspiro[2.5]octane	324.15	
18503-52-1	1,4-Diazabicyclo[2.2.2]octane, 1-oxide	393.15	
185040-34-0	[4-(Ethylamino)-2-(methylsulfanyl)pyrimidin-5-yl]methanol	427.15	
185040-35-1	4-(Ethylamino)-2-(methylthio)pyrimidine-5-carboxaldehyde	332.65	
18507-95-4	Benzo[b]quinolizinium, perchlorate	478.75	
1851-10-1	3-Chloro-4-(methylamino)benzaldehyde	355.15	
18511-71-2	4,4′-Dibromo-2,2′-bipyridine	414.65	
18511-72-3	4,4′-Dinitro-2,2′-bipyridine	458.15	
185129-92-4	2-(4-Nitrophenyl)-1H-imidazo[4,5-f][1,10]phenanthroline	575.15	
18515-11-2	3-Methoxy-2-naphthol	381.65	
18516-19-3	2,2-Dimethyl-3-[[(4-methylphenyl)sulfonyl]oxy]propanal	341.15	
18521-72-7	2-Chloro-1,3,8-trihydroxy-6-methyl-9,10-anthracenedione	554.65	
18527-27-0	5-[1-[(4-Chlorophenyl)thio]-1-methylethyl]-2H-tetrazole	454.9	
18528-15-9	α-(1-Nitroethyl)-4-pyridinemethanol	426.4	
18529-47-0	Suberenol	449.65	
1853-91-4	4-Methyl-6-phenyl-1,3,5-triazin-2-amine	428.65	
1853-95-8	4-Phenyl-1,3,5-triazin-2-amine	476.65	
1853-96-9	4-(Chloromethyl)-6-phenyl-1,3,5-triazin-2-amine	419.15	
185383-65-7	4-(5-Methoxy-1H-indol-3-yl)cyclohexanone	377.65	
1854-25-7	D-Glucosone	363.65	
1854-30-4	2-Aminoethyl acetate	404.15	
18540-41-5	N-(8-Hydroxy-5-quinoxalinyl)acetamide	519.65	
18543-23-2	2-(Benzoylamino)-N-phenylbenzamide	429.65	
18545-96-5	1-Deoxy-D-glucitol	401.65	
1855-65-8	1,1,4,4-Tetrakis(hydroxymethyl)cyclohexane	498.15	
185527-66-6	Methyl (2E)-3-(3-chloro-4-hydroxyphenyl)-2-propenoate	346.15	
185554-99-8	1-[(2-Methyl-1H-imidazol-1-yl)methyl]-2-naphthalenol	476.65	
1857-26-7	3,7-Dihydroxy-9-methoxy-6H-benzofuro[3,2-c][1]benzopyran-6-one	605.15	
1857-57-4	3-Bromo-4-methoxybenzenepropanoic acid	369.65	
18584-23-1	Benzeneacetic acid, α-hydroxy-4-methyl-, ethyl ester	349.15	
18588-58-4	5-(3-Chlorophenyl)-2,4-pyrimidinediamine	478.15	
1859-71-8	N-(2-Benzoylphenyl)-4-methylbenzenesulfonamide	400.15	
1859-88-7	3-Methyl-3-(2-propen-1-yl)-3H-indole	417.15	
18592-02-4	Ethyl α-cyano-4-cinnolineacetate	499.9	
18595-14-7	Methyl 4-amino-3-methylbenzoate	335.4	
18595-16-9	Benzoic acid, 2-amino-5-methyl-, methyl ester	342.65	
1860-47-5	6-Methyl-2-(trifluoromethyl)quinoline	365.65	
1860-67-9	2-[(1-Methyl-2-phenoxyethyl)amino]-1-[4-(phenylmethoxy)phenyl]-1-propanone	482.15	
18600-52-7	2-(4-Chlorophenyl)-4H-benzo[d][1,3]oxazin-4-one	463.15	
18600-57-2	2-Styryl-4-oxo-3,1-benzoxazine	419.65	
186028-80-8	Methylone hydrochloride	499.15	
18604-50-7	Citrusin C	398.15	
18607-76-6	(3β,12β,14β,17α,20S)-Pregn-5-ene-3,8,12,14,17,20-hexol	534.65	
18607-90-4	Kakuol	383.15	
18607-93-7	Asaricin	392.65	
18609-16-0	Deacetylnimbin	465.65	
18609-17-1	Quercetin 3-O-sophoroside	472.15	
1861-29-6	Methyleneoxindole	517.15	
18610-71-4	(3α,21β)-A′-Neogammacer-22(29)-en-3-ol	496.65	
18611-43-3	1,1,3,3-Tetrachloro-1-propene		424.55
18617-41-9	2-Ethoxy-3,5-dinitropyridine	556.65	
18619-21-1	2-[(2-Methoxyphenyl)thio]acetic acid	387.65	
1862-41-5	Anonaine	395.65	
1862-43-7	Spiro[2,5-cyclohexadiene-1,7′(1′H)-cyclopent[ij]isoquinolin]-4-one, 2′,3′,8′,8′a-tetrahydro-5′,6′-dimethoxy-1′-methyl-, hydrochloride, (R)-	463.15	
18621-17-5	1-Benzhydrylazetidin-3-ol	388.15	
18621-18-6	3-Hydroxyazetidine hydrochloride	364.65	
18621-22-2	1-(4-Bromophenoxy)-2-propanone	316.4	
186267-77-6	6-Bromo-1,4-dihydro-5-methyl-8-nitro-2H-3,1-benzoxazin-2-one	460.15	
18633-71-1	2-Ethylnaphtho[2,3-b]furan-4,9-dione	415.65	
18634-87-2	Pipataline	310.15	
18635-49-9	4-(1,1-Dimethylethyl) 1-methyl N-[(1,1-dimethylethoxy)carbonyl]-L-aspartate	328.15	
18636-98-1	Benzenecarboximidamide, 2-methyl-, hydrochloride (1:1)	522.65	
186390-74-9	2-(Hydroxymethyl)-5-nitrobenzeneethanol	353.15	
186392-43-8	5-Chloro-N-[(1S,2R)-2-hydroxy-3-(methoxymethylamino)-3-oxo-1-(phenylmethyl)propyl]-1H-indole-2-carboxamide	465.15	
1864-93-3	4-Ethoxy-N,N-dimethylbenzenamine	308.15	
18642-23-4	Psoralidin	588.15	
18642-44-9	Actein	521.15	
18649-93-9	Alisol B	440.15	
1865-62-9	Acetamide, N-[(17β)-3-oxoandrost-4-en-17-yl]-	558.15	
18657-58-4	1H-Indene, 1-(3-bromopropyl)-	438.15	
18668-89-8	1,3,11-Tridecatriene-5,7,9-triyne	324.15	
186685-89-2	2-(4-Formyl-2-methoxyphenoxy)acetamide	357.65	
18669-52-8	2,3-Dimethyl-1,4-hexadiene		380.15
186692-45-5	(2S)-2-[[9-(1-Methylethyl)-6-[(phenylmethyl)amino]-9H-purin-2-yl]amino]-1-butanol	377.65	
1867-41-0	Pregna-4,6-diene-3,20-dione, 17-(acetyloxy)-6-(hydroxymethyl)-	392.15	
1867-73-8	N6-Methyladenosine	445.15	
1867-91-0	1,2-Dipalmitoyl-3-oleoylglycerol	307.65	
18671-94-8	1,2,4-Benzotriazine, 3,7-dichloro-, 1-oxide	423.65	
18672-77-0	2-Acetoxy-1-tetralone	347.15	
18677-43-5	2,4-Dimethoxypyridine		473.65
18677-51-5	Pyridine, 2,4,6-trimethyl-3-nitro-, 1-oxide	395.15	
186792-11-0	4-Chloro-2-ethyl-5-methoxy-3(2H)-pyridazinone	372.65	
1868-85-5	[2,3,5,6-Tetrafluoro-4-(trifluoromethyl)phenyl]hydrazine	357.15	
1868-91-3	Benzhydrol, 4,4′-dichloro-α-(dichlorofluoromethyl)-	352.65	
18684-28-1	3,5-Dihydroxy-O-methyltyrosine	546.65	
1869-27-8	P-[4-(Trifluoromethyl)phenyl]phosphonic acid	451.15	
1869-28-9	Hydrazine, [2-nitro-4-[(trifluoromethyl)sulfonyl]phenyl]-	412.65	
18694-10-5	Palaudine	449.15	
186953-56-0	Pafuramidine	465.9	
18696-26-9	Sinapine	451.15	
18696-52-1	1-Carboxyethyl tetradecanoate	342.15	
18700-61-3	2,6-Methanofuro[3,4-b]furan-3-carboxylic acid, 7-bromohexahydro-4-oxo-	507.15	
187030-13-3	4-(1H-Indol-3-ylthio)butanoic acid	339.65	
18706-39-3	2-(Trifluoromethyl)-4-quinolinecarboxylic acid	454.65	
18708-87-7	cis-Chlorfenvinphos	252.15	
18711-15-4	4,6-Dichloro-1H-indole-2,3-dione	523.15	
18717-73-2	N-Benzylnortropine	363.15	
1872-60-2	O-(1,1-Dimethylethyl)-N-[(phenylmethoxy)carbonyl]-L-serylglycine	372.15	
18720-35-9	1-Methyl bicyclo[2.2.2]octane-1,4-dicarboxylate	447.65	
18720-69-9	7-Methoxy-2,3-diphenyl-4H-1-benzopyran-4-one	495.65	
187227-45-8	Ro 64-0802	459.15	
187235-37-6	PA 824	422.65	
187278-04-2	5-[[(2-Bromophenyl)amino]methylene]-2,2-dimethyl-1,3-dioxane-4,6-dione	433.15	
1873-12-7	1-Methyl-5-nitro-1H-pyrrole-2-carboxylic acid	477.15	
18733-95-4	Silane, tetrakis(3,5-dibromophenyl)-	573.15	
187344-95-2	Bis([1,1′-biphenyl]-4-yl)phosphine oxide	433.5	
18735-81-4	7-Chloro-4-hydroxycoumarin	521.65	
18738-58-4	4-[[(4-Methoxyphenyl)amino]sulfonyl]benzoic acid	543.15	
1874-39-1	2-(3-Methylphenyl)-5-phenyl-1,3,4-oxadiazole	381.15	
1874-43-7	2-(4-Chlorophenyl)-5-phenyl-1,3,4-oxadiazole	435.15	
18741-39-4	2,3-Dihydro-6-iodo-3-(2-methylphenyl)-2-thioxo-4(1H)-quinazolinone	573.15	
18742-94-4	4-Hydroxy-6-propyl-2H-pyran-2-one	321.65	
18749-47-8	3-Acetylbenzeneacetic acid	379.15	
18749-71-8	Sitoindoside I	437.15	
1875-63-4	2,3-Dinitronaphthalene	443.9	
1875-72-5	6-Methyl-2-naphthalenesulfonyl chloride	364.15	
187526-99-4	9H-Fluoren-9-ylmethyl N-[(1S)-2-[4-(1,1-dimethylethoxy)phenyl]-1-(hydroxymethyl)ethyl]carbamate	425.65	
18755-48-1	5-(1-Methylethenyl)-2H-tetrazole	441.65	
1876-16-0	Guanidine, (2-hydroxyethyl)-, sulfate (2:1) (salt)	404.65	
18761-32-5	7-Nitrobenzofuran	369.65	
18765-32-7	Silicic acid (H4SiO4), tetrakis(2-methylpentyl) ester		597.15
187682-64-0	stereoisomer of [(4a,5,6,7,7a-η)-4-(Dimethylamino)-4aH-cyclopenta[b]pyridin-4a-yl][(1,2,3,4,5-η)-1,2,3,4,5-pentaphenyl-2,4-cyclopentadien-1-yl]iron	553.65	
18769-05-6	1,3-Diethenyl-1,1,3,3-tetraphenyldisiloxane	352.15	
18773-88-1	Benzyldimethyltetradecylammonium bromide	320.65	
18773-95-0	1-(1H-Benzimidazol-1-yl)ethanone	386.65	
18774-48-6	2-Methyl[1]benzothieno[2,3-d]pyrimidin-4(1H)-one	579.65	
18776-12-0	3-Chloro-1-phenyl-1-propanol	304.15	404.15
18776-92-6	(4E)-4-Octenoic acid	269.15	
18780-68-2	Carbonic acid, 4-(chlorocarbonyl)-2,6-dimethoxyphenyl ethyl ester	347.65	
18787-65-0	4-Hexadecanone	311.65	
18790-84-6	4-Amino-N,N-bis(2-hydroxyethyl)benzenesulfonamide	383.65	
187949-02-6	Albaconazole	374.65	
18797-86-9	Cinchonan-9-ol, 6′-methoxy-, acetate, (8α,9R)-	389.15	
187998-45-4	Ethyl 1-(4-bromophenyl)-5-methyl-1H-pyrazole-4-carboxylate	326.15	
18800-26-5	1-(2-Bromoethoxy)-2-chlorobenzene	283.65	
18800-28-7	1-Bromo-2-(2-bromoethoxy)benzene	307.65	
18800-34-5	1-(2-Bromoethoxy)-4-methylbenzene	312.15	
18800-99-2	2,6-Bis(1,1-dimethylethyl)-9,10-anthracenedione	436.15	
18801-60-0	6,7,9,10-Tetraazaspiro[4.5]decane-8-thione	440.15	
188011-68-9	4-[[4-(Acetylamino)phenyl]amino]-4-oxobutanoic acid	496.15	
18802-37-4	Dihydro-1,2,4-triazine-3,5(2H,4H)-dione	507.15	
18807-68-6	C,C′-Bis(phenylmethyl) N,N′-1,3-propanediylbis[carbamate]	385.65	
18807-73-3	Carbamic acid, N-(4-aminobutyl)-, phenylmethyl ester, hydrochloride (1:1)	465.15	
18810-27-0	Card-20(22)-enolide, 3-[(O-2,6-dideoxy-β-D-ribo-hexopyranosyl-(1→4)-O-2,6-dideoxy-β-D-ribo-hexopyranosyl-(1→4)-2,6-dideoxy-β-D-ribo-hexopyranosyl)oxy]-7,14-dihydroxy-, (3β,5β,7β)-	539.15	
188116-08-7	1-(4-Chlorophenyl)-1,5-dihydro-4-(1-piperidinyl)-2H-imidazol-2-one	515.15	
188121-31-5	6-Methyl-5-nitroisoquinoline	409.15	
18813-71-3	6-Bromo-1-methyl-9H-pyrido[3,4-b]indole	519.65	
18818-39-8	2-(2-Methylphenyl)-4(3H)-quinazolinone	491.15	
1882-71-9	2-Amino-5-methoxybenzamide	430.65	
1882-72-0	Benzoic acid, 2-amino-5-hydroxy-, methyl ester	431.15	
1882-73-1	2-(Acetylamino)-5-(acetyloxy)benzoic acid	461.65	
1882-78-6	2,3-Dihydro-6-hydroxy-3-phenyl-2-thioxo-4(1H)-quinazolinone	583.65	
18822-58-7	O-(1,1-Dimethylethyl)-L-serine	511.65	
18822-59-8	O-tert-Butyl-L-tyrosine	521.9	
188240-68-8	Ethyl 3-bromo-4,5,6,7-tetrahydro-1-isobenzofurancarboxylate	362.65	
188256-41-9	4-Chloro-3-methyl-6-nitroquinoline	444.65	
1883-13-2	(±)-3-Hydroxydodecanoic acid	343.4	
18830-47-2	1,3-Bis[4-(2-phenyldiazenyl)phenyl]-1-triazene	443.15	
18836-12-9	4H-Pyrano[3,2-h][1]benzoxepin-4-one, 8,9-dihydro-5,8-dihydroxy-8-(hydroxymethyl)-2-methyl-	507.15	
18838-41-0	2,2,4,5-Tetrabromo-4-cyclopentene-1,3-dione	416.65	
1884-48-6	1,1′-(3,8-Dimethyl-1,3,5,7,9-decapentaene-1,10-diyl)bis[benzene]	472.65	
1884-73-7	2-Methylpentanal 2-(2,4-dinitrophenyl)hydrazone	370.65	
18840-47-6	Gepefrine	429.65	
18841-73-1	9α,17β-Dihydroxyandrost-4-en-3-one	472.15	
188417-26-7	Ethylvanillin isobutyrate	318.65	
18842-99-4	Scandoside	414.15	
1885-26-3	2-(2-Bromo-2-phenylethyl)propanedinitrile	332.65	
1885-32-1	2-Amino-3-methylbenzamide	422.15	
1885-78-5	1-Nitro-2-naphthalenecarbonitrile	411.15	
188524-65-4	Methyl 4-(2-naphthalenyl)-1H-pyrrole-3-carboxylate	473.65	
188524-67-6	Methyl 4-(4-chlorophenyl)-1H-pyrrole-3-carboxylate	445.15	
188524-70-1	Methyl 4-(3-thienyl)-1H-pyrrole-3-carboxylate	440.65	
18859-20-6	N-Methyl-N-phenylbenzenepropanamide	312.15	
1886-34-6	N-[(4-Amino-2-methyl-5-pyrimidinyl)methyl]formamide	500.65	
18861-58-0	Ethyl 3-(4-bromophenyl)-2-cyanoacrylate	370.65	
188622-31-3	1-[4-(Trifluoromethyl)phenyl]-2-pyrrolidinone	360.15	
188640-74-6	(1aS,3S,4S,5S,7R,7aS,8R,9R,10aR,12R,12aS)-3,4,7,8,9,10a-Hexakis(acetyloxy)tetradecahydro-2,2,9,12-tetramethyl-6-methylene-11-oxo-2H-cyclopenta[5,6]cyclododec[1,2-b]oxiren-5-yl 2-methylpropanoate	491.65	
18866-78-9	Colterol	416.15	
18866-87-0	5β-Cholestane-3α,7α,12α,25-tetrol	461.65	
188665-76-1	[1,1′-Biphenyl]-3-carboxamide	445.65	
18869-43-7	DL-Leucine, methyl ester	507.65	
1887-69-0	2,6-Dimethyl-3-nitro-4-[(2,4,6-trimethyl-3-nitrophenyl)methyl]phenol	497.65	
1887055-63-1	Salicortin	414.65	
188709-97-9	1-[5-Methyl-2-(1-methylethyl)cyclohexyl] hydrogen butanedioate	331.65	
18877-34-4	(11aS)-2,3-Dihydro-1H-pyrrolo[2,1-c][1,4]benzodiazepine-5,11(10H,11aH)-dione	483.15	
188781-11-5	2-Chloro-4-phenyl-5-pyrimidinecarboxylic acid	319.15	
188781-14-8	2-Chloro-4-phenyl-5-pyrimidinecarbonyl chloride	315.15	
188781-19-3	2-Cyano-4-(trifluoromethyl)-5-pyrimidinecarbonyl chloride	421.65	
1888-02-4	4-Chloro-3-ethyl-2-methylquinoline	308.15	
1888-33-1	N-[(4-Methylphenyl)sulfonyl]acetamide	412.15	
18880-05-2	Phosphonium, [(3-methoxyphenyl)methyl]triphenyl-, chloride (1:1)	544.65	
18881-17-9	(S)-1,2,3,4-Tetrahydro-3-isoquinolinemethanol	379.15	
188812-95-5	β-Amino-3,5-dichlorobenzenepropanoic acid	499.65	
188813-07-2	Methyl 3-bromo-5-iodobenzoate	335.65	
18887-19-9	Methyl tanshinonate	448.65	
18889-27-5	(T-4)-Chlorotris(phenylmethyl)titanium	373.15	
18891-68-4	Silane, bis(diphenylmethyl)diphenyl-	434.65	
189-66-2	Acridino[2,1,9-mna]acridine	635.15	
1890-99-9	2′-Hydroxyformononetin	489.15	
18904-38-6	N-Benzylpicolinamide	354.65	
18904-40-0	7-Methoxy-9-(3-methyl-2-buten-1-yl)furo[2,3-b]quinolin-4(9H)-one	393.15	
189059-71-0	Lapaquistat	410.65	
18908-08-2	1,4-Dibromo-2,5-dinitrobenzene	399.65	
189084-64-8	BDE 100	370.65	707.15
189089-91-6	1-(Phenylsulfonyl)-1H-pyrrolo[2,3-b]pyridine-2-carboxaldehyde	415.65	
189099-57-8	1-Bromo-4-[2-(4-methoxyphenyl)ethynyl]benzene	509.15	
1891-29-8	Lactucin	499.15	
189101-43-7	(1R,2S)-2-Aminocyclohexane-1-carboxylic acid	503.15	
18913-39-8	(1,3-Dihydro-2H-isoindol-2-yl)phenylmethanone	372.25	
18916-44-4	Quinoxaline, 2-methyl-, 1-oxide	366.65	
189181-53-1	(5E)-6-(4-Hydroxy-3-methoxyphenyl)-5-hexene-2,4-dione	418.65	
1892-55-3	5H-Pyrido[3,2-a]phenoxazin-5-one	519.65	
1892-56-4	(8S,9R)-8,9-Dihydro-8-[1-methyl-1-(3-methyl-1-oxobutoxy)ethyl]-2-oxo-2H-furo[2,3-h]-1-benzopyran-9-yl 3-methylbutanoate	332.15	
189279-58-1	Delafloxacin	512.65	
189283-53-2	3,5-Dichloro-4-fluoro-2-hydroxybenzoic acid	393.3	
189299-05-6	Xanthohumol C	465.65	
18931-78-7	N-(2-Chloro-4-methylphenyl)acetamide	384.15	
18933-45-4	2,3,5,6-Tetrafluorotyrosine	544.65	
18951-43-4	4-[(1E)-2-(4-Aminophenyl)ethenyl]phenol	543.15	
18952-87-9	1-Isopropyl-1H-pyrazole		416.15
18956-15-5	Pinostrobin chalcone	426.15	
18956-16-6	2′,4′-Dihydroxy-6′-methoxychalcone	451.15	
18958-19-5	1-Methyl 2,6-dimethyl-1,4-benzenedicarboxylate	427.15	
18962-07-7	4-(2-Methylpropoxy)benzaldehyde	428.15	
189625-14-7	1,1-Dimethylethyl N-[(1R,4S)-4-(acetyloxy)-2-cyclopenten-1-yl]carbamate	330.65	
189628-37-3	5-Bromo-2-chlorobenzaldehyde	317.65	