CAS	name	Tm	Tb
13630-19-8	1-Methyl-2-(trifluoromethyl)benzene	398.65	398.65
13630-20-1	3-Methyl-4-(trifluoromethyl)-1,1′-biphenyl	298.4	
13630-56-3	3-[2-(2-Propen-1-yloxy)ethoxy]propanoic acid	433.65	
136310-93-5	Tiotropium bromide	492.15	
136315-71-4	rel-(1R,2R)-2-[[(1,1-Dimethylethoxy)carbonyl]amino]cyclopentanecarboxylic acid	410.65	
136366-43-3	4-Ethoxy-3-nitrobenzonitrile	394.15	
13640-39-6	γ-Glu-Gly-Gly	450.15	
13640-67-0	4-[(Phenylsulfonyl)methyl]benzenamine	449.15	
13641-97-9	2-Propenoyl isocyanate	355.65	
136465-98-0	N2-(2-Quinolinylcarbonyl)-L-asparagine	474.65	
136465-99-1	2,5-Dioxo-1-pyrrolidinyl 2-quinolinecarboxylate	464.15	
13650-70-9	1,1-Dimethylethyl (2S)-2-hydroxypropanoate	315.15	
136507-15-8	2-Methoxy-4-nitrobenzaldehyde	395.15	
136507-21-6	N-Methyl-1,3-benzodioxole-5-propanamide	407.15	
13651-07-5	2,2-Dibromo-1-(3-nitrophenyl)ethanone	328.65	
136552-20-0	N-2-Propyn-1-yl-1-naphthalenecarboxamide	378.9	
13658-68-9	3,5-Dimethyl-1-(phenylsulfonyl)-1H-pyrazole	342.15	
13669-29-9	1,2-Dimethyl-4-methylenepiperidine		417.15
13673-95-5	Methyl (αS)-α-hydroxybenzenepropanoate	319.15	
136759-41-6	(2S)-1,2,3,4-Tetrahydro-6-methoxy-2-naphthalenecarboxylic acid	394.65	
13676-94-3	2-(4-Methoxyphenyl)-2-oxazoline	334.9	
13680-05-2	2-Propanone, O-(2-nitrophenyl)oxime	330.65	
13682-34-3	2-Styryl-1H-imidazole	451.65	
13683-11-9	[(Chlorodimethylsilyl)methyl]trimethylsilane	429.65	
13684-31-6	3,4′,5-Trinitro[1,1′-biphenyl]-4-ol	474.65	
13686-51-6	2-Bromo-1-(1-naphthalenyl)ethanone	356.65	
13691-27-5	1-(4-Amino-3-methylphenyl)-2-pyrrolidinone	393.15	
13691-29-7	1-(4-Amino-2-methylphenyl)-2-pyrrolidinone	416.15	
136945-65-8	2,2′-Iminobis[4-hydroxybenzoic acid]	525.15	
13695-46-0	2-[Ethyl[4-[2-(4-nitrophenyl)diazenyl]phenyl]amino]ethyl 2-propenoate	384.65	
13697-89-7	1,3-Difluoro-2-iodobenzene	298.65	
13698-23-2	7-Hydroxy-5,4′-dimethoxyflavone	571.15	
137-21-3	9,10-Dihydroxyoctadecanedioic acid	431.05	
137-44-0	5-Pyrazolone	541.15	
137-45-1	Pyrazol-5-ol	434.15	
137-76-8	4-[[(4-Amino-2-methyl-5-pyrimidinyl)methyl]formylamino]-3-[(ethoxycarbonyl)thio]-3-penten-1-yl ethyl carbonate	387.15	
137031-56-2	1,2,3,4-Tetrahydro-9,11-dimethoxy-2-methylnaphth[2,1-f]isoquinoline-8,12-diol	407.65	
13709-03-0	Cassiaside	529.65	
13709-06-3	2,4-Bis(methoxymethoxy)benzaldehyde	321.15	
13709-27-8	4-Hydroxy-6-[2-(4-hydroxyphenyl)ethenyl]-2H-pyran-2-one	475.65	
13709-32-5	Peroxydisulfuryl fluoride	217.75	340.25
13711-24-5	3-Chloro-2,5-dimethylbenzenamine	312.65	
13711-25-6	1,2-Dichloro-5-methyl-3-nitrobenzene	323.15	
13711-31-4	N-(4-Bromo-2,5-dimethylphenyl)acetamide	458.15	
137131-18-1	Triptriolide	534.15	
137138-52-4	1-Ethoxy-2-methoxy-4-(1E)-1-propen-1-ylbenzene	337.15	
137173-46-7	N-Dodecanoyl-L-homoserine lactone	401.15	
137180-64-4	4-(2-Chloroacetyl)-1-oxaspiro[4.5]decan-2-one	404.15	
13720-59-7	1-(4-Chloro-2,5-dimethoxyphenyl)ethanone	374.4	
13721-01-2	1,4-Dihydro-4-oxo-3-quinolinecarboxylic acid	542.65	
13721-20-5	3-Chloro-4-methoxybenzeneacetic acid	368.65	
137215-31-7	2-Ethyl-7-hydroxy-4H-1-benzopyran-4-one	461.65	
137252-25-6	3-Hydroxy-2-[(1R,6R)-3-methyl-6-(1-methylethenyl)-2-cyclohexen-1-yl]-5-pentyl-2,5-cyclohexadiene-1,4-dione	323.65	
13726-16-4	4-Chloro-3-methoxybenzaldehyde	325.15	
13726-19-7	4-Chloro-3-methoxybenzeneacetic acid	389.15	
13726-21-1	4-Chloro-3-methoxybenzeneacetonitrile	447.15	
13726-69-7	1-(1,1-Dimethylethyl) (2S,4R)-4-hydroxy-1,2-pyrrolidinedicarboxylate	400.15	
13726-84-6	5-(1,1-Dimethylethyl) hydrogen N-[(1,1-dimethylethoxy)carbonyl]-L-glutamate	374.65	
137272-71-0	N-(4-Cyanophenyl)-2-thiophenecarboxamide	473.15	
13730-10-4	1,2,4,5-Tetraphenyl-1H-imidazole	488.15	
13732-33-7	Ethyl (2E)-2-(2-phenylhydrazinylidene)propanoate	390.65	
13732-69-9	Levonorgestrel acetate	435.65	
13733-51-2	2-[4-(1,1-Dimethylethyl)cyclohexylidene]acetic acid	323.15	
13735-09-6	3-[(3-Bromophenyl)thio]propanoic acid	363.65	
13735-11-0	2,3-Dihydro-6-methoxy-4H-1-benzothiopyran-4-one	302.65	
13735-13-2	6-Bromo-2,3-dihydro-4H-1-benzothiopyran-4-one	343.15	
13735-19-8	3,4-Dihydro-6-methoxy-2H-1-benzothiopyran-4-ol	329.65	
13735-87-0	N-Methyl-N,2-diphenylethenesulfonamide	404.9	
13737-38-7	9-Bromo-9H-fluorene-1-carboxylic acid	515.15	
137375-81-6	2-[(1-Methylethyl)sulfinyl]acetic acid	353.65	
13738-74-4	N-[(Butylamino)carbonyl]-4-nitrobenzenesulfonamide	442.65	
137380-49-5	Benzaldehyde, 3-(hydroxymethyl)-2,4,6-trimethyl-	341.65	
13739-36-1	3-[(4-Methoxyphenyl)thio]propanoic acid	354.65	
13741-46-3	1-[(3S,3aR,5R,7aS)-Octahydro-3-hydroxy-7a-methyl-5-(1-methylethenyl)-3aH-inden-3a-yl]ethanone	311.65	
13744-18-8	Gibberellin A15	548.15	
137444-52-1	(2E)-3-(3,4-Dimethoxyphenyl)-1-(2-thienyl)-2-propen-1-one	353.65	
13745-86-3	11-Chlorodibenzo[b,f][1,4]thiazepine	383.65	
13751-85-4	7,8,9,10-Tetrahydro-6,6,9-trimethyl-6H-dibenzo[b,d]pyran-3-ol	414.15	
13752-53-9	1,4-Bis(5-amino-2-benzoxazolyl)benzene	576.65	
13754-86-4	1,5,6,7-Tetrahydro-4H-indol-4-one	460.65	
137551-37-2	9-Hydroxy-2,2-dimethyl-2H,6H-benzofuro[3,2-c]pyrano[2,3-h][1]benzopyran-6-one	563.65	
13761-37-0	1,2,4,5-Tetrazin-1(2H)-yl, 3,4-dihydro-6-(4-methoxyphenyl)-2,4-diphenyl-	400.65	
137628-17-2	2,3-Dibromo-5-chloropyridine	312.65	
13764-20-0	2-(2-Pyridinyl)benzoic acid	480.15	
13769-19-2	Phosphorane	477.15	
13771-69-2	Ethyl 5-fluorobenzo[b]thiophene-2-carboxylate	363.65	
13771-73-8	5-Fluorobenzo[b]thiophene-2-methanol	367.15	
137848-29-4	(-)-2′-Amino-1,1′-binaphthalen-2-ol	443.15	
13788-94-8	3,5-Dimethyl-1-(4-nitrophenyl)-1H-pyrazole	375.15	
13788-97-1	3,4-Dimethyl-1-(4-nitrophenyl)-1H-pyrazole	433.15	
13794-02-0	3-Methyl-2-phenoxybutanoic acid	345.65	
13794-15-5	2-(4-Methoxyphenoxy)propionic acid	363.15	
13794-24-6	α-Propyl-1H-benzimidazole-2-methanol	454.65	
138-55-6	Picrocrocin	469.15	
13807-14-2	1-[4-Amino-2-(phenylamino)-5-thiazolyl]ethanone	484.15	
13808-65-6	4-Bromo-3-phenyl-1H-pyrazole	389.65	
13808-73-6	4-Methyl-1-(4-nitrophenyl)-1H-pyrazole	398.65	
13809-81-9	19-Nor-5α,17α-pregn-20-yn-3-one, 5-chloro-17-hydroxy-	486.65	
13811-12-6	3,5-Dibromo-4-hydroxybenzenepropanoic acid	385.15	
13815-63-9	Benzoic acid, 1-phenylhydrazide, hydrochloride (1:1)	474.65	
13815-96-8	Diethenylphenylphosphine oxide	323.65	
138163-22-1	3-(1-Methylethyl)-1-(methylthio)-3H-pyrrolo[2,1-a]isoindole-2,5-dione	352.15	
138164-12-2	Butroxydim	353.95	
138165-77-2	Benzenebutanoic acid, β-amino-, hydrochloride (1:1), (βS)-	450.15	
13822-09-8	Benzyl peroxide	345.9	
13832-70-7	Stearyl glycyrrhetinate	390.15	
13836-61-8	Spheroidene	409.65	
13836-70-9	Spheroidenone	439.65	
13838-45-4	5-Methoxy-7-nitro-1H-indole-2-carboxylic acid	536.15	
13844-01-4	Barringtogenol C	590.65	
13844-22-9	(3β,4α,16α,21β,22α)-Olean-12-ene-3,16,21,22,23,28-hexol	575.15	
13849-53-1	(2S,3R,11bS)-3-Ethyl-1,3,4,6,7,11b-hexahydro-9,10-dimethoxy-2-[[(1R)-2,3,4,9-tetrahydro-1H-pyrido[3,4-b]indol-1-yl]methyl]-2H-benzo[a]quinolizin-8-ol	457.75	
13849-54-2	(2R,3R,11bS)-3-Ethyl-1,3,4,6,7,11b-hexahydro-8-hydroxy-9,10-dimethoxy-2H-benzo[a]quinolizine-2-ethanol	448.15	
13849-91-7	Pomolic acid	571.15	
138490-95-6	2-Iodo-3,4-dimethoxybenzaldehyde	355.15	
138512-75-1	(1R,3R)-3-Acetyl-2,2-dimethylcyclobutaneacetonitrile	318.15	
138517-61-0	Trost Ligand	410.65	
138517-66-5	(11S,12S)-9,10-Dihydro-9,10-ethanoanthracene-11,12-diamine	426.35	
138529-46-1	(+)-Biotinyl-3,6-dioxaoctanediamine	382.65	
138551-27-6	rel-3-[(13R)-13-[(2R,2′R,5R,5′R)-5′-[(1S)-1,6-Dihydroxyundecyl]octahydro[2,2′-bifuran]-5-yl]-13-hydroxytridecyl]-5-methyl-2(5H)-furanone	304.65	
13861-05-7	4,7-Dihydro-3a,7a-propano-1H-isoindole-1,3(2H)-dione	436.15	
138614-32-1	(γR)-γ-[4-(Trifluoromethyl)phenoxy]benzenepropanamine hydrochloride (1:1)	402.65	
13862-28-7	Borate(1-), trifluoromethyl-, potassium, (T-4)-	555.15	
13867-82-8	(17β)-17-[1-(Acetyloxy)-2,2,2-trichloroethoxy]androst-4-en-3-one	465.65	
138716-22-0	1-[1,1′-Biphenyl]-4-yl-3-(dimethylamino)-2-propen-1-one	374.15	
138716-23-1	(2E)-3-(Dimethylamino)-1-(2-naphthalenyl)-2-propen-1-one	380.15	
138769-97-8	(1S,2S)-3-(Methylthio)-3,5-cyclohexadiene-1,2-diol	334.65	
138775-03-8	1-(1,1-Dimethylethyl) 4-(phenylmethyl) (2S)-1,2,4-piperazinetricarboxylate	324.65	
13878-93-8	(3β,25R)-3-Hydroxy-24-methylene-9,19-cyclolanostan-26-oic acid	442.15	
13881-41-9	3-Chloro-2-hydroxy-2-methylpropanoic acid	383.15	
13882-27-4	Carbamimidothioic acid, ethyl ester, hydriodide (1:1)	452.65	
13882-78-5	2,2-Dimethyl-3-morpholinone	388.15	
13882-80-9	2-Methyl-3-morpholinone	329.15	
13884-92-9	Phosphonium, triphenyl[(phenylthio)methyl]-, chloride (1:1)	516.15	
138840-91-2	2-[3-(4-Chlorophenyl)-4,5-dihydro-1H-pyrazol-5-yl]phenol	443.15	
13885-20-6	Estra-4,9-diene-3,17-dione, (±)-	440.65	
13885-31-9	Estra-1,3,5(10)-trien-3-ol, 17-(1-cyclohexen-1-yloxy)-, 3-propanoate, (17β)-	368.15	
13887-51-9	2-Bromo-2-methyl-1-(4-morpholinyl)-1-propanone	307.15	
138884-84-1	Cangoronin	543.65	
13889-94-6	S-Butyl carbonochloridothioate		452.15
138907-71-8	Ethyl 5-amino-1-(4-bromophenyl)-1H-pyrazole-4-carboxylate	394.15	
138907-85-4	1-(4-Bromophenyl)-1H-pyrazole-4-carboxylic acid	475.65	
13891-87-7	4-Penten-2-one		384.65
13894-64-9	Methyl cis-2-hexenoate		406.65
13898-60-7	Benzo[g]quinazoline-2,4(1H,3H)-dione	631.65	
139-27-5	1-[3-(Benzoyloxy)phenyl]-2-bromoethanone	378.15	
139-28-6	1-[3-(Benzoyloxy)phenyl]ethanone	325.65	
13900-14-6	N,N-Dimethyl-N-(2-phenoxyethyl)-1-dodecanaminium	402.65	
13902-62-0	Oplodiol	379.65	
13906-07-5	3-Butyl-2,3-dihydro-2-thioxo-4(1H)-quinazolinone	514.15	
13909-71-2	1-(4-Hydroxy-2,5-dimethoxyphenyl)ethanone	390.65	
13920-94-0	Bis(2-methoxyphenyl) disulfide	392.15	
13921-90-9	(+)-3-Amino-3-phenylpropanoic acid	517.15	
13924-95-3	Methyl 4,5-dihydro-5-oxo-2-pyrazinecarboxylate	457.15	
13924-96-4	4,5-Dihydro-5-oxo-2-pyrazinecarboxamide	566.65	
13925-22-9	4-Acetyl-2,4-dihydro-5-methyl-3H-pyrazol-3-one	473.15	
139272-67-6	2-Ethoxy-2-oxoethyl 2-[(2,6-dichlorophenyl)amino]benzeneacetate	438.65	
13931-64-1	Cyclohexanemethanol, α-ethyl-, 1-carbamate	401.65	
13932-53-1	Monoethyl carbonate	320.65	433.4
139336-32-6	(Z)-5-[(1H-Indol-3-yl)methylene]thiazolidine-2,4-dione	492.15	
13935-80-3	N-(2,3-Dihydro-1H-inden-2-yl)acetamide	381.15	
139399-63-6	4-Bromo-8-quinolinol	407.65	
139399-64-7	6-Bromo-8-quinolinol	411.65	
139399-67-0	3-Bromo-8-quinolinamine	379.65	
13940-86-8	4-Chloro-6-methyl-1,3-benzenedisulfonyl dichloride	398.15	
13944-95-1	2-(2-Benzothiazolylthio)-1-phenylethanone	383.15	
13944-97-3	2-(2-Benzoxazolylthio)-1-(4-bromophenyl)ethanone	411.65	
13945-54-5	Ethyl N-[(4-methoxyphenyl)sulfonyl]carbamate	392.65	
13948-21-5	N-Acetyl-3-nitro-L-tyrosine	463.65	
139481-69-9	1H-Benzimidazole-7-carboxylic acid, 2-ethoxy-1-[[2′-(2H-tetrazol-5-yl)[1,1′-biphenyl]-4-yl]methyl]-, methyl ester	464.15	
139481-72-4	2-Ethoxy-1-[[2′-[1-(triphenylmethyl)-1H-tetrazol-5-yl][1,1′-biphenyl]-4-yl]methyl]-1H-benzimidazole-7-carboxylic acid	437.15	
13950-60-2	3-(2-Chlorophenyl)-5-methyl-4-isothiazolecarboxylic acid	444.15	
13950-63-5	5-Methyl-3-phenyl-4-isothiazolecarbonitrile	345.65	
13950-67-9	Ethyl 2,3-dihydro-2-oxo-4-phenyl-5-thiazolecarboxylate	475.15	
13950-71-5	Androst-4-ene-3β,17β-diol, 7α,17-dimethyl-	439.65	
139504-50-0	Maytansinoid DM 1	464.15	
139525-77-2	2-(7-Methoxy-1-naphthyl)ethylamine hydrochloride	518.15	
13956-52-0	(3S,4S,4aR,6aS,9aR,11S,13aR,13bS,15aS,15bR)-2,3,4,4a,5,6,6a,7,9,9a,10,11,12,13,13a,13b,14,15,15a,15b-Eicosahydro-4-(hydroxymethyl)-4,6a,10,10,13a,15b-hexamethyl-1H-cyclohepta[1,2-a:5,4-a′]dinaphthalene-3,11-diol	608.65	
13957-55-6	N,N,α-Trimethyl-γ-phenylbenzenepropanamine	363.65	
13958-89-9	[N(E)]-N-[(2E,4E)-5-(Phenylamino)-2,4-pentadien-1-ylidene]benzenamine	423.15	
13959-02-9	3-Bromoisonicotinic acid	493.15	
13959-40-5	3-Pyridinamine, N-(4-methylphenyl)-4-nitro-, 1-oxide	473.15	
13961-37-0	2-Ethylpiperazine		452.65
13962-76-0	Dehydrodiferulic acid	482.65	
13962-92-0	2,5-Diphenylterephthalic acid	564.15	
139713-80-7	16-Hydroxytriptolide	505.9	
139713-81-8	Yunnanxane	434.15	
139755-99-0	1-Methyl-3-propyl-1H-pyrazole-5-carboxylic acid	425.15	
139756-00-6	1-Methyl-4-nitro-3-propyl-1H-pyrazole-5-carboxylic acid	398.65	
139756-01-7	1-Methyl-4-nitro-3-propyl-1H-pyrazole-5-carboxamide	415.15	
139756-03-9	4-(2-Ethoxybenzamido)-1-methyl-3-propylpyrazole-5-carboxamide	427.15	
139756-22-2	5-(5-Chlorosulfonyl-2-ethoxyphenyl)-1-methyl-3-propyl-1,6-dihydro-7H-pyrazolo[4,3-d]pyrimidin-7-one	453.15	
1398-17-0	(3S,4R,4aS)-4-Ethenyl-3-(β-D-glucopyranosyloxy)-3,4,4a,5,6,7-hexahydro-8H-pyrano[3,4-c]pyridin-8-one	473.15	
13980-12-6	rel-(2R,3S)-3-Octyl-2-oxiraneoctanol	326.2	
13980-14-8	2-Hydroxydocosanoic acid	367.9	
13980-16-0	13-Hydroxydocosanoic acid	360.4	
13980-77-3	1,2-Dihydro-1-(4-methylphenyl)-5H-tetrazole-5-thione	423.65	
13980-78-4	Ethyl 2-[(1-phenyl-1H-tetrazol-5-yl)thio]acetate	386.15	
13981-52-7	Polonium-210		1508.15
13982-84-8	4-Methyl-8-quinolinesulfonyl chloride	427.65	
13983-13-6	Rifampicin quinone	458.15	
13988-67-5	4,4-Dimethyl-1-phenyl-1,3-pentanedione	475.15	
139891-98-8	3′,6-Disinapoylsucrose	402.65	
13990-07-3	3,5-Dibromo-4-hydroxy-α-oxobenzenepropanoic acid	464.65	
13991-42-9	3,3′-Dimethoxy-5,5′-dipropyl[1,1′-biphenyl]-2,2′-diol	423.4	
13992-26-2	β-D-Galactopyranosyl azide, 2,3,4,6-tetraacetate	369.15	
13995-92-1	1,2-Dihydro-4-methyl-6-phenyl-3H-pyrazolo[3,4-d]pyrimidin-3-one	570.15	
140-69-2	[(4-Methoxyphenyl)methyl]hydrazine	308.15	408.65
14001-68-4	5-Bromo-4-(methylthio)pyrimidine	345.15	
14001-70-8	2-(Methylthio)-5-nitropyrimidine	355.65	
14002-90-5	4,7-Dimethylcoumarin	391.65	
14002-91-6	4,5,7-Trimethyl-2H-1-benzopyran-2-one	450.65	
14002-93-8	3,4,7-Trimethyl-2H-1-benzopyran-2-one	387.15	
14002-98-3	5-Methoxy-4,7-dimethyl-2H-1-benzopyran-2-one	419.15	
14003-38-4	1-Methyl-3-(2-oxopropyl)-2(1H)-quinoxalinone	466.15	
14004-56-9	5-Hydroxy-7-methoxy-6,8-dimethyl-2-phenyl-4H-1-benzopyran-4-one	486.15	
14005-51-7	4-Phenyl-2-(1-piperidinyl)quinazoline	372.65	
14005-52-8	2-(4-Methyl-1-piperazinyl)-4-phenylquinazoline	374.65	
14007-67-1	3,4-Dimethyl-5-phenyl-2-thiazolidinimine	465.15	
1401-54-3	(3aS,5aS,6R,9aR,9bS)-Decahydro-6,9a-dihydroxy-5a-methyl-3,9-bis(methylene)naphtho[1,2-b]furan-2(3H)-one	478.15	
1402-18-2	2-Pyridinecarboxamide, 3-hydroxy-N-[10-hydroxy-5,11-dimethyl-2-(1-methylpropylidene)-3,7,12-trioxo-9-(3-pyridinylmethyl)-1,4-dioxa-8-azacyclododec-6-yl]-, hydrochloride, [5R-(2Z,5R*,6S*,9S*,10S*,11R*)]-	468.15	
14021-23-9	(3β,13α)-3-Methoxy-13-methyl-27-norolean-14-ene	551.15	
14032-66-7	5-Hydroxy-2(5H)-furanone	326.65	
14032-73-6	5-(Benzoyloxy)-3,4-dibromo-2(5H)-furanone	426.15	
14034-08-3	Methyl 3-bromo-4-(1,1-dimethylethyl)benzoate	387.15	
14034-59-4	1,2-Ethanediamine, 4-methylbenzenesulfonate (1:1)	568.65	
14034-92-5	5-Bromo-2-(1,1-dimethylethyl)benzoic acid	396.9	
14034-99-2	4-Bromo-2-(1,1-dimethylethyl)benzoic acid	390.65	
140401-58-7	Benzenemethanamine, 4-(dimethylamino)-, hydrochloride (1:1)	495.15	
140428-83-7	α-D-Mannopyranoside, 2-azidoethyl, 2,3,4,6-tetraacetate	355.1	
14044-28-1	1H-Pyrazol-4-amine, 1-(4-chlorophenyl)-	366.65	
14044-59-8	4-(4-Pentyn-1-yl)morpholine		349.15
14045-15-9	4-Sulfo-3-pyridinecarboxylic acid	531.15	
14046-84-5	Kaurenal	387.65	
14047-28-0	(αR)-6-Amino-α-methyl-9H-purine-9-ethanol	466.15	
140480-96-2	1-[(4-Methoxyphenyl)methyl]-1H-pyrrole-2,5-dione	373.65	
14058-38-9	(αS,2R,5S,6R)-5-Hydroxy-6-(hydroxymethyl)-α-methyl-2-piperidineundecanol	399.15	
14058-39-0	12-[(2R,5S,6R)-5-Hydroxy-6-(hydroxymethyl)-2-piperidinyl]-3-dodecanone	368.15	
14058-91-4	1-(4-Chlorophenyl)-1,3-dihydro-5-methyl-2H-imidazol-2-one	459.65	
14058-92-5	1-(3-Chlorophenyl)-1,3-dihydro-5-methyl-2H-imidazol-2-one	460.65	
14060-57-2	1-(2-Chlorophenyl)-1H-pyrazol-4-amine	353.65	
14062-37-4	Dibutylmethylphosphine oxide	308.15	
140626-81-9	Octacosanamide	382.15	
14064-34-7	4-Amino-1-butanesulfonic acid	536.15	
14064-35-8	3-[(1E)-2-Phenylethenyl]benzonitrile	343.15	
14067-79-9	N-[(4-Chlorophenyl)sulfonyl]benzenecarboximidamide	380.65	
14068-54-3	5-Butyl-1,3,4-thiadiazol-2-amine	468.65	
140712-80-7	N-Benzoyl-3′-O-[bis(4-methoxyphenyl)phenylmethyl]-2′-deoxycytidine	389.65	
140712-81-8	3′-O-[Bis(4-methoxyphenyl)phenylmethyl]-2′-deoxy-N-(2-methyl-1-oxopropyl)guanosine	382.65	
14073-01-9	Quinoline, 4-chloro-3-methyl-, 1-oxide	489.15	
14073-27-9	1,5,6,7-Tetrahydro-1,2-diphenyl-4H-indol-4-one	469.15	
14080-61-6	5-Acetyl-3,4-dihydro-4,6-dimethyl-2(1H)-pyrimidinone	463.15	
14085-42-8	5-Amino-3-phenyl-1H-pyrazole-1-ethanol	422.65	
14085-43-9	2-Cyclohexyl-1H-imidazole	445.65	
14085-44-0	2-Cyclohexyl-5-methyl-1H-imidazole	441.65	
14086-10-3	1,2-Ethanediol, 1-(2-furanyl)-, 1,2-dibenzoate, (1R)-	357.65	
14087-31-1	Gaxilose	437.15	
14088-85-8	N1-(3-Methoxyphenyl)-1,2-ethanediamine	318.65	
14088-95-0	1-[3-(Trifluoromethyl)phenyl]-2-imidazolidinone	415.15	
14088-96-1	1-(3-Bromophenyl)-2-imidazolidinone	401.65	
14091-99-7	1,2-Dithiane-4-carboxylic acid	380.4	
14094-38-3	6-Amino-5-(dimethylamino)-1-methyl-2,4(1H,3H)-pyrimidinedione	513.65	
14097-36-0	1,2,3,4-Tetrahydro-2-methyl-6-nitroisoquinoline	366.65	
14100-99-3	S-(2-Methylpropyl) carbonochloridothioate	341.15	
141018-30-6	2-Hexynyl-5′-N-ethylcarboxamidoadenosine	418.65	
141071-79-6	1-(Phenylmethyl)-1H-indole-3-propanoic acid	390.15	
14111-16-1	Benzenamine, 3,5-dibromo-4-[2-(dimethylamino)ethoxy]-, (2Z)-2-butenedioate (1:1)	419.9	
14113-05-4	trans-10-Hydroxy-2-decenoic acid	337.65	
14115-49-2	4,4,4-Trifluoro-3,3-bis(trifluoromethyl)-1-butanol	309.65	407.9
14117-54-5	(2S)-2,3-Dihydro-5,7-dihydroxy-2-[4-[(3-methyl-2-buten-1-yl)oxy]phenyl]-4H-1-benzopyran-4-one	424.65	
14123-78-5	3,4-Dihydro-3-methylisoquinoline	399.65	
14123-79-6	α-Acetyl-3-chlorobenzeneacetonitrile	358.15	
14125-75-8	1,5-Anhydro-D-arabino-hex-1-enitol 2,3,4,6-tetrabenzoate	394.65	
141315-50-6	(αS)-α-Amino-2-chlorobenzeneacetic acid	458.2	
14133-24-5	2-Methyl-3-(2-methylphenyl)pyrido[2,3-d]pyrimidin-4(3H)-one	451.65	
14133-36-9	Methyl 3-amino-3-deoxy-β-D-glucopyranoside	474.65	
14133-90-5	4-Hydroxypropranolol hydrochloride	450.15	
141339-96-0	4-[(4-Methoxyphenyl)thio]benzaldehyde	319.4	
14135-64-9	2-(4-Methylphenyl)-3(2H)-pyridazinone	371.15	
141399-54-4	4-(Chloromethyl)-2-(2-furanyl)-5-methyloxazole	317.15	
1414-39-7	Albomycin	448.15	
14140-02-4	1,4-Naphthalenedione, 1,4-dioxime	423.15	
14143-36-3	3-Ethyl-4-(methylthio)phenol	320.65	
14144-06-0	Trillin	550.65	
14146-10-2	2-[(4-Nitrophenyl)thio]cyclohexanone	366.65	
14146-27-1	Phenylmethyl 2-(acetylamino)-2-deoxy-3-O-(phenylmethyl)-α-D-glucopyranoside	451.65	
14148-44-8	N-Methyl-8-quinolinamine	283.65	
14151-06-5	7-Bromo-8-methoxy-5-methylquinoline	336.15	
14152-57-9	Ethyl 3,4-dihydro-4-methyl-3-oxo-2-quinoxalineacetate	414.15	
141556-42-5	1,3-Dihydro-1,3-bis(2,4,6-trimethylphenyl)-2H-imidazol-2-ylidene	423.15	
141579-54-6	Fenleuton	412.65	
14158-66-8	Triethylamine, 2-[p-(2-chloro-1,2-diphenylvinyl)phenoxy]-, hydrochloride, (Z)-	422.9	
1416052-89-5	5-[(2E)-3,7-Dimethyl-5-oxo-2,6-octadien-1-yl]-2,3-dihydro-4-hydroxy-6-methoxy-2-(2-phenylethyl)-1H-isoindol-1-one	410.15	
14161-12-7	2,3-Dihydro-6-methoxy-1,4-phthalazinedione	566.15	
14162-70-0	Piperidine, 2-(3-methylbutyl)-, hydrochloride (1:1)	420.65	
141620-04-4	Benzene, 1,1′-[1,11-undecanediylbis(oxy)]bis-	325.15	
141625-42-5	1,4-Dimethyl 2-(ethylamino)-2-butenedioate	344.65	
141632-15-7	(2E)-3-(3,4-Dihydroxyphenyl)-2-propenal	472.65	
14164-26-2	2-[1-(Dimethylamino)ethylidene]propanedinitrile	329.65	
14165-18-5	N1-Methyl-N1-(phenylmethyl)-1,2-ethanediamine	399.15	
14165-21-0	N1-Ethyl-N1-(2-methylpropyl)-1,2-ethanediamine	319.15	319.15
14165-23-2	N1-(1-Methylethyl)-N1-propyl-1,2-ethanediamine	362.15	
14166-26-8	rel-(3aR,4R,7S,7aS)-2-(2,6-Dioxo-3-piperidinyl)hexahydro-4,7-methano-1H-isoindole-1,3(2H)-dione	508.15	
141699-59-4	4-[(Methylsulfonyl)oxy]piperidine-1-carboxylic acid tert-butyl ester	467.15	
14174-93-7	Ethyl 1,2-dihydro-4-hydroxy-1-oxo-3-isoquinolinecarboxylate	466.65	
14178-19-9	4-(1,1-Dimethylethyl)-2-(1-piperidinylmethyl)phenol	318.65	
14180-55-3	Tris(4-methoxyphenyl)phosphine sulfide	382.65	
14182-63-9	2-(4-Methylphenyl)-1-(4-morpholinyl)ethanethione	374.15	
14182-64-0	2-(4-Ethylphenyl)-1-(4-morpholinyl)ethanethione	365.45	