CAS	name	Tm	Tb
21641-60-1	Ajmalan-16-carboxylic acid, 19,20-didehydro-1-demethyl-17-hydroxy-, methyl ester, (2ξ,17S,19E)-	536.65	
21643-38-9	4-Hexylbenzoic acid	370.15	
21643-42-5	Tetradecyl acrylate	287.15	
21645-26-1	N,N-Diethyl-N′-2-propen-1-ylthiourea	328.65	
21645-51-2	Aluminum hydroxide	573.15	
21646-99-1	Diphosphorous acid, P,P,P′,P′-tetraethyl ester		355.65
2165-19-7	Guanoxan	437.65	
21650-65-7	Diazene, 1,2-diphenyl-, 1-oxide, (1E)-	357.15	
21650-83-9	(3β,5α)-3-(Acetyloxy)pregna-9(11),16-dien-20-one	445.15	
21651-19-4	Tin oxide (SnO)	1353.15	
21652-58-4	Heptadecafluoro-1-decene		423.15
21653-20-3	(1S,3S,4R,5R)-4-Methyl-1-(1-methylethyl)bicyclo[3.1.0]hexan-3-ol	340.15	
21653-40-7	Benzamide, N-[(1S)-4-[(aminoiminomethyl)amino]-1-[[(4-nitrophenyl)amino]carbonyl]butyl]-, hydrochloride (1:1)	534.65	
21655-48-1	rel-(2R,6S)-2,6-Dimethylpiperazine	388.65	
21655-84-5	9H-Pyrido[3,4-b]indole, 1-methyl-, hydrochloride (1:1)	550.15	
21656-26-8	3-(Acetylmethylamino)-2,4,6-triiodo-5-[(methylamino)carbonyl]benzoic acid	553.15	
21658-26-4	4-Nitrophenyl 4-[(aminoiminomethyl)amino]benzoate	502.65	
2166-31-6	6-Phenyl-3(2H)-pyridazinone	424.15	
21663-61-6	2,5-Dichlorobenzonitrile	402.15	
21668-03-1	1-Dodecyl butanedioate	321.15	
2167-39-7	2-Methyloxetane	333.15	332.15
2167-85-3	Pipazethate	338.65	
2167-87-5	10H-Phenothiazine-10-propanamine, N,N,2-trimethyl-, hydrochloride (1:1)	467.15	
21679-14-1	Fludarabine	533.15	
21679-31-2	Tris(acetylacetonato)chromium	484.15	
21679-46-9	tris(Acetylacetonato)cobalt	482.15	
2168-06-1	4-Chloro-β,β-bis(4-chlorophenyl)benzenepropanoic acid	465.65	
2168-13-0	2-[(Dimethylamino)methyl]-3-pyridinol	330.65	
2168-16-3	2-(1-Piperidinylmethyl)-3-pyridinol	346.2	
2168-93-6	Dibutyl sulfoxide	305.75	
2168-96-9	Dodecyl sulfoxide	362.65	
2169-41-7	Benzamide, N-[2-(diethylamino)ethyl]-4-nitro-, hydrochloride (1:1)	437.65	
2169-44-0	N-Methyllaurotetanine	431.65	
2169-64-4	Azaribine	373.15	
2169-87-1	2,3-Naphthalenedicarboxylic acid	512.65	
2169-98-4	Benzaldehyde, 3,4-dimethoxy-, oxime	366.65	
2169-99-5	Benzaldehyde, 2-hydroxy-3-methoxy-, oxime	397.15	
217-37-8	Benzo[c]picene	487.65	
217-59-4	Triphenylene	472.15	698.15
2170-03-8	Itaconic anhydride	342.15	
2170-09-4	N,2-Dimethylbenzamide	348.15	
2170-21-0	4-[(3-Methylphenoxy)methyl]-2-phenyl-1,3,2-dioxaborolane	329.15	
2170-22-1	4-[(4-Methylphenoxy)methyl]-2-phenyl-1,3,2-dioxaborolane	343.15	
2170-23-2	4-[(3-Chlorophenoxy)methyl]-2-phenyl-1,3,2-dioxaborolane	345.15	
2170-24-3	4-[(4-Chlorophenoxy)methyl]-2-phenyl-1,3,2-dioxaborolane	325.65	
2170-58-3	1,4-Benzodioxin-2-methanamine, N-[2-(2,6-dimethoxyphenoxy)ethyl]-2,3-dihydro-, hydrochloride (1:1)	407.65	
21700-31-2	1,1,1,2,3-Pentachloropropane	453.15	452.65
21702-79-4	Benzoic acid, 3,5-dibromo-2-hydroxy-, methyl ester	428.15	
21702-84-1	2,4-Dibromoanisole	334.15	
21705-13-5	Methyl D-alaninate	350.15	
2171-74-6	1,3-Benzodioxol-2-one	392.65	
21711-65-9	1-Nitrosonaphthalene	371.15	
21711-71-7	2-Nitroso-1,1′-biphenyl	381.65	
21715-46-8	Etifoxine	364.15	
21715-90-2	3a,4,7,7a-Tetrahydro-2-hydroxy-4,7-methano-1H-isoindole-1,3(2H)-dione	437.15	
21716-65-4	1H-Indole-2-carboxamide, 5-chloro-N-[(1-ethyl-2-pyrrolidinyl)methyl]-3-methoxy-, hydrochloride (1:?)	504.15	
21717-29-3	6-Ethyl-2-pyridinamine		491.15
2172-49-8	4-Chloro-β,β-bis(4-chlorophenyl)benzenepropanoyl chloride	409.15	
2172-51-2	4-Chloro-β,β-bis(4-chlorophenyl)benzenepropanenitrile	444.15	
2172-93-2	5-Chloro-2-(4-chlorophenoxy)-N,N-dimethyl-4-nitrobenzenamine	338.65	
21720-47-8	Pregna-4,16-diene-3,20-dione, 21-(acetyloxy)-11-hydroxy-, (11β)-	420.65	
21721-92-6	2-Methyl-4-nitro-1-(4-nitrophenyl)-1H-imidazole	459.15	
21725-46-2	Cyanazine	441.4	
21725-69-9	1,2-Benzisoxazol-3(2H)-one	418.65	
2173-56-0	Pentyl pentanoate	194.35	476.85
2173-57-1	2-(2-Methylpropoxy)naphthalene	306.4	577.65
21731-56-6	4-(Methylsulfonyl)-2-nitrobenzenamine	471.65	
21732-17-2	1H-Tetrazole-1-acetic acid	401.85	
21734-43-0	3,5-Dihydroxy-N-(2-hydroxyethyl)benzamide	460.15	
21737-55-3	5H-Dibenz[b,f]azepin-10-amine, 10,11-dihydro-N,5-dimethyl-, hydrochloride (1:?)	512.15	
21738-42-1	Oxamniquine	421.15	
21739-92-4	5-Bromo-2-chlorobenzoic acid	439.15	
21739-93-5	2-Bromo-5-chlorobenzoic acid	421.65	
2174-13-2	(3β)-3-(Acetyloxy)pregna-5,16-dien-20-one 20-oxime	494.65	
2174-59-6	5-Demethylnobiletin	418.15	
2174-64-3	5-Methoxyresorcinol	353.45	
21742-26-7	2-Chloro-α-(hydroxyimino)benzeneacetonitrile	385.15	
21743-75-9	Tetrazole-5-acetic acid	400.15	
21744-84-3	4-Methyl-2H-1,4-benzoxazin-3(4H)-one	330.65	
21746-40-7	N-Propylmaleimide	353.15	
21747-46-6	Viridiflorene		390.15
2175-80-6	1-[4-(Dodecyloxy)phenyl]ethanone	323.15	
2175-86-2	P-(4-Nitrophenyl)phosphonic acid	470.65	
2175-90-8	Diphenylfulvene	355.15	582.15
21752-34-1	4-Oxo-4-[[(1S)-1-phenylethyl]amino]butanoic acid	372.15	
2176-45-6	3-Phenoxypyridine		421.15
2176-62-7	Pentachloropyridine	398.65	553.15
2176-98-9	Tetrapropylstannane	164.05	501.15
21763-71-3	Sequoiaflavone	617.65	
2177-18-6	Vinyl acrylate	366.15	364.15
2177-47-1	2-Methylindene	353.15	481.15
2177-62-0	Aspartic acid β-methyl ester	467.15	
2177-63-1	4-(Phenylmethyl) hydrogen L-aspartate	384.15	
2177-78-8	Methyl 3-methylpentanoate		410.8
2177-81-3	Hexanoic acid, 2-methyl-, methyl ester		350.65
2177-83-5	Hexanoic acid, 5-methyl-, methyl ester		439.65
2178-97-4	Carbonothioic acid, S-[5-(butylthio)-1,3,4-thiadiazol-2-yl] O-ethyl ester	303.15	
21784-53-2	1H-2,3-Benzothiazin-4(3H)-one, 2,2-dioxide	493.15	
21789-36-6	2,4-Dimethylbenzonitrile	297.65	
2179-15-9	L-Lysine, N2-[(phenylmethoxy)carbonyl]-, 4-nitrophenyl ester, hydrochloride (1:1)	424.15	
2179-37-5	Bencyclane		424.15
2179-59-1	Allyl propyl disulfide	258.15	
2179-60-4	Methyl propyl disulfide	160.17	368.75
2179-89-7	Bis(1,3-diphenyl-2-imidazolidinylidene)	553.15	
2179-91-1	Trimethylstannanecarbonitrile	455.15	
2179-92-2	Tributylstannanecarbonitrile	361.65	
21794-55-8	(+)-Daunomycinone	486.65	
21797-50-2	Phenyl α-D-mannopyranoside	405.65	
218-01-9	Chrysene	531.35	721.15
218-02-0	Naphth[2,1-f]isoquinoline	498.15	
218-08-6	Naphtho[2,1-f]quinoline	499.65	
2180-20-3	1,1′-Sulfinylbis[hexane]	333.15	
2180-65-6	Triisohexylaluminum		393.15
21801-79-6	2-Methylimidazo[1,2-a]pyridine-3-carboxylic acid	458.15	
2181-42-2	Trimethylsulfonium iodide	478.15	
2181-97-7	Phosphonium, (2-methoxy-2-oxoethyl)triphenyl-, chloride (1:1)	415.15	
21810-19-5	1-Amino-2-[(phenylimino)methyl]-9,10-anthracenedione	485.15	
21816-08-0	3-Bromo-1-adamantanecarboxylic acid	419.65	
21816-42-2	Pyridine, 2,5-dimethyl-4-nitro-, 1-oxide	424.65	
2182-14-1	(-)-Vindoline	437.65	
2182-38-9	2-Methyl-2-(phenylamino)propanenitrile	366.65	
2182-52-7	Benzylammonium acetate	369.9	
2182-55-0	Cyclohexyl vinyl ether		420.65
2182-66-3	Silanediol, 1,1-dimethyl-, 1,1-diacetate	260.65	438.15
2182-69-6	1-[(4-Methylphenyl)sulfonyl]methanol	367.65	
21825-03-6	4,4′-Methylenebis[2,6-dibromophenol]	498.15	
21825-16-1	Acetic acid, 2,2′-[methylenebis(4,1-phenyleneimino)]bis[2-oxo-, diethyl ester	423.15	
21829-25-4	Nifedipine	446.15	
2183-56-4	α-Oxymorphol	525.65	
21834-98-0	2-Hydroxy-3,5-dimethyl-2-cyclopenten-1-one	364.55	
21835-01-8	3-Ethyl-2-hydroxy-2-cyclopenten-1-one	312.15	
21835-55-2	Urea, 4-methylbenzenesulfonate (1:1)	455.15	
21849-70-7	3,4,2′,4′-Tetrahydroxychalcone	471.15	
2185-03-7	2(3H)-Furanone, 3-aminodihydro-, hydrochloride (1:1), (3S)-	492.15	
21850-44-2	Tetrabromobisphenol A bis(2,3-dibromopropyl ether)	361.65	
21850-61-3	4-Hydroxy-α-methylbenzeneacetonitrile	317.15	
21853-83-8	Pregn-4-ene-3,20-dione, 21-(acetyloxy)-16,17-epoxy-, (16α)-	439.15	
21854-95-5	1,2-Bis(2-chlorophenyl)-1,2-ethanedione	401.15	
21856-89-3	6-Hydroxy-2-hexanone		500.15
2186-92-7	Anisaldehyde dimethyl acetal		396.15
21862-63-5	trans-4-tert-Butylcyclohexanol	351.65	
21879-81-2	(5S,6R,7S)-5,6,7,8-Tetrahydro-5,6,7,9,10-pentahydroxy-2-methoxy-7-methyl-1,4-anthracenedione	496.15	
2188-09-2	Hexamethylenediurea	471.15	
2188-18-3	N2-[(1,1-Dimethylethoxy)carbonyl]-N5-[imino(nitroamino)methyl]-L-ornithine	385.15	
2188-67-2	Naepaine	339.15	
2188-68-3	1H-[1,3]Dioxolo[4,5-j]pyrrolo[3,2,1-de]phenanthridine-1,2-diol, 2,4,5,7,12b,12c-hexahydro-, hydrochloride (1:1), (1S,2S,12bS,12cS)-	479.15	
21881-54-9	3,5-Diethyl 1,4-dihydro-2,6-dimethyl-4-(4-nitrophenyl)-3,5-pyridinedicarboxylate	387.65	
21881-77-6	m-Nifedipine	481.15	
21884-26-4	1-Methylethyl 4-oxopentanoate		482.45
21884-44-6	(-)-Luteoskyrin	560.15	
21884-47-9	(8S,8aS,9S,17S,17aR,19R)-7,8,8a,9-Tetrahydro-1,4,6,8,10,15,19-heptahydroxy-2,12-dimethyl-9,17-methanonaphtho[2′,3′:5,6]cyclohept[1,2-d]anthracene-5,11,14,16,18(17H)-pentone	562.65	
21887-01-4	Horminone	451.15	
21888-96-0	[3,4′-Bipiperidine]-2,6-dione, 3-phenyl-1′-(phenylmethyl)-, hydrochloride (1:1), (3S)-	545.65	
21888-98-2	Dexetimide	455.15	
21889-05-4	2-(4-Aminophenyl)indole	474.65	
21889-13-4	2-[[4-(Dimethylamino)phenyl]methylene]-1H-indene-1,3(2H)-dione	472.65	
2189-26-6	Glycyl-DL-tryptophan	553.15	
2189-60-8	Octylbenzene	237.15	537.65
21892-63-7	1,1′-Methylenebis[1,1-diphenylarsine]	369.65	
21892-80-8	3-Methylbenzo[d]oxazol-2(3H)-one	356.15	
21895-17-0	2,4′-Dimethyldiphenylmethane	270.15	
21898-19-1	Clenbuterol hydrochloride	447.65	
21898-59-9	1-Methyl-1H-pyrrole-2-acetic acid	386.15	
21899-50-3	(1aR,3R,8S,8aR,11aS,11bR)-1a,2,3,7,8,8a,9,10,11a,11b-Decahydro-1a-methyl-9-methylene-5,10-dioxo-5H-3,6-methenofuro[2,3-f]oxireno[d]oxacycloundecin-8-yl 3-methyl-2-butenoate	516.15	
219-25-0	Phenanthro[2,1-b]thiophene	510.65	
2190-27-4	1-Palmitoyl-2-oleoyl-3-stearoylglycerol	310.15	
21901-34-8	3-Methyl-5-nitro-2(1H)-pyridinone	502.15	
21901-41-7	4-Methyl-5-nitro-2(1H)-pyridinone	462.65	
21905-75-9	2-(3-Methoxyphenoxy)benzoic acid	401.65	
21905-86-2	4-Cinnolinecarboxylic acid	468.65	
21905-92-0	N,N,N′,N′-Tetraphenylmethanediamine	356.65	
21906-90-1	4-(Diethylamino)benzenediazonium	397.75	
21908-53-2	Mercuric oxide	773.15	
21908-85-0	4-Chloro-9H-thioxanthen-9-one	448.15	
21911-76-2	2-(Methylphenylamino)acetamide	437.15	
21911-84-2	N-Phenyl-β-alanine methyl ester	311.1	
21914-07-8	5,5-Diphenylbarbituric acid	564.15	
21915-53-7	3-Phenyl-2-oxiranemethanol	299.65	
2192-20-3	Hydroxyzine hydrochloride	466.15	
2192-21-4	1-Propanone, 1-[2-[2-(diethylamino)ethoxy]phenyl]-3-phenyl-, hydrochloride (1:1)	402.65	
21922-58-7	1,5-Dimethylbicyclo[3.2.1]octan-8-one	414.15	
21928-43-8	1-Heptylpiperidine		394.15
2193-00-2	(3β,5α,6α)-5,6-Epoxy-3-hydroxypregnan-20-one	458.15	
2193-16-0	Benzamide, N-[2-(diethylamino)ethyl]-2-(2-propen-1-yloxy)-4-(trifluoromethyl)-, hydrochloride (1:1)	381.65	
2193-87-5	Fluprednidene	523.15	
21937-57-5	Piperidine, 4-chloro-1-(phenylmethyl)-, hydrochloride (1:1)	468.65	
21937-95-1	Glycine, N-dodecyl-, hydrochloride	425.15	
21947-98-8	N-[(1,1-Dimethylethoxy)carbonyl]-S-(triphenylmethyl)-L-cysteine	349.65	
21948-70-9	2-(Methylthio)pyrazine	319.4	
21951-40-6	3,3′,5,5′-Tetrachloro[1,1′-biphenyl]-2,2′-diol	451.65	
21956-56-9	trans-3,5-Dimethoxystilbene	327.65	453.15
21957-65-3	1-[(4-Methylphenyl)sulfonyl]-5-oxo-L-proline	401.65	
2196-13-6	4-Pyridinecarbothioamide	483.15	
2196-14-7	7,4′-Dihydroxyflavone	588.15	
2196-99-8	2-Chloro-1-(4-methoxyphenyl)ethanone	443.15	
21962-24-3	1,1-Dimethoxy-2-butene		399.15
21964-44-3	1-Nonen-3-ol		466.65
21967-41-9	Baicalin	496.15	
21968-17-2	N-(1-Methylethyl)-1-propanamine		370.05
2197-01-5	3,3′-Diethylthiacyanine iodide	535.15	
2197-57-1	2,3-Dimethyl-1,4-naphthoquinone	400.15	
2197-63-9	Dicetyl phosphate	342.15	
219714-96-2	Penoxsulam	496.65	
21974-48-1	2,4,6-Trimethylpiperidine		418.15
2198-23-4	4-Nonene		418.15
2198-53-0	N-(2,6-Dimethylphenyl)acetamide	456.15	399.15
2198-54-1	N-(3,4-Dimethylphenyl)acetamide	369.65	
2198-58-5	N,N-Diethyl-p-phenylenediamine hydrochloride	495.65	
2198-61-0	Isoamyl hexanoate		498.65
2198-64-3	N-Benzoyl-L-alanine	392.15	422.65
2198-66-5	2-Bromo-4-tert-butylphenol	325.15	
2198-75-6	1,3-Dichloronaphthalene	335.45	564.15
2198-77-8	2,7-Dichloronaphthalene	387.65	
2198-93-8	Trichodermol	391.15	
21981-37-3	N-(1,1-Dimethylethyl)-2-methyl-2-propanamine		366.65
21982-83-2	Cumambrin B	449.65	
21985-87-5	2,3,4,5,6-Pentanitrobenzenamine	470.15	
219861-08-2	Escitalopram oxalate	418.15	
21987-21-3	12-Methyl-1-tridecanol	283.65	
21987-62-2	2,2′-Dihydroxy-3,3′,5,5′-tetrabromobiphenyl	573.15	
21988-87-4	1,3,5-Tris(bromomethyl)-2,4,6-trimethylbenzene	457.65	
21988-92-1	2-Propenamide, N,N′-[1,2-ethanediylbis(oxymethylene)]bis-	371.15	
2199-46-4	Ethyl 3,4,5-trimethyl-1H-pyrrole-2-carboxylate	401.15	
2199-51-1	Ethyl 2,4-dimethyl-1H-pyrrole-3-carboxylate	430.65	
2199-52-2	Ethyl 2,5-dimethyl-1H-pyrrole-3-carboxylate	429.65	
2199-53-3	Ethyl 4,5-dimethyl-1H-pyrrole-3-carboxylate	384.9	
2199-55-5	2,5-Diethyl 3,4-dimethyl-1H-pyrrole-2,5-dicarboxylate	340.15	
2199-59-9	1H-Pyrrole-3-carboxylic acid, 5-formyl-2,4-dimethyl-, ethyl ester	438.15	
2199-64-6	Ethyl 4-formyl-3,5-dimethyl-1H-pyrrole-2-carboxylate	418.15	
2199-87-3	6-Bromo-2-oxo-2H-chromene-3-carboxylic acid	473.15	
2199-93-1	3-Acetyl-6-bromocoumarin	492.15	
219921-94-5	L-Glutamic acid, N-acetyl-, compd. with (αS)-α-(2-methylpropyl)-2-(1-piperidinyl)benzenemethanamine (1:1)	443.15	
220-77-9	Naphtho[1,2-b]chrysene	658.15	
220-97-3	11H-Indeno[2,1-a]phenanthrene	600.65	
220000-87-3	4-Chloro-N-methylpicolinamide	314.65	
22002-45-5	2-Bromo-4-methylanisole	472.15	495.15
22002-86-4	1-Stearoyl lysophosphatidic acid	342.9	
22005-33-0	1,4-Piperazinedicarbonitrile	441.15	
22009-37-6	7-Methyl-1-tetralone	308.65	
2201-15-2	N-Ethyl-1-phenylcyclohexanamine	376.15	
220127-57-1	Imatinib mesylate	420.15	
22013-33-8	1,4-Benzodioxan-6-amine	480.65	
22015-35-6	Europium iodide (EuI2)	783.15	
22019-64-3	4-Methyl-N-(4-nitrophenyl)-N-(phenylmethyl)benzenesulfonamide	394.65	
2202-17-7	(-)-O-Methyldauricine	454.65	
22020-68-4	2,5-Bis(2-methylphenyl)-1,3,4-oxadiazole	394.15	
22025-44-1	4-[(4-Ethoxyphenyl)amino]-3-nitrobenzenesulfonamide	430.15	
22026-12-6	6-Tridecanone	290.15	
22026-39-7	1,3-Benzodioxole-5-carboxylic acid, hydrazide	448.65	
2203-97-6	Hydrocortisone hemisuccinate	444.15	
22033-87-0	Olesoxime	419.65	
220353-20-8	2,4-Difluoro-3-methoxybenzonitrile	314.65	
22037-28-1	3-Bromofuran	404.9	376.15
22038-40-0	4-(1-Methyl-1-phenylethyl)-N-[4-(1-methyl-1-phenylethyl)phenyl]-N-nitrosobenzenamine	373.15	
22041-19-6	1-Pyrrolidineacetic acid, ethyl ester		332.4
22042-71-3	(4-Formylphenoxy)acetic acid	466.65	
22042-79-1	3,5-Dimethyl-1-phenyl-1H-pyrazole-4-carboxaldehyde	401.15	
22042-87-1	2-Propylidenehydrazinecarbothioamide	424.15	
22047-25-2	Acetylpyrazine	350.15	352.65
22047-88-7	2-(Benzyloxy)phenylacetic acid	371.15	
220497-66-5	(1S,3R)-3-[[(9H-Fluoren-9-ylmethoxy)carbonyl]amino]cyclopentanecarboxylic acid	440.15	
220497-67-6	(1R,3S)-3-[[(9H-Fluoren-9-ylmethoxy)carbonyl]amino]cyclopentanecarboxylic acid	438.15	
2205-32-5	Phenylmethyl 2-oxocyclohexanecarboxylate		446.65
2205-73-4	Tiomesterone	478.65	
2205-86-9	(6β)-6,19-Epoxypregn-4-ene-3,20-dione	415.65	
22050-10-8	5-Phenyl-2-pyrrolidinone	383.15	
22051-15-6	1H-Indol-3-yl(4-methoxyphenyl)methanone	481.15	
22052-04-6	Tetrahydro-1,3,5-triazine-2(1H)-thione	450.65	
22052-84-2	Methyl perfluoroisopropyl ether		302.15
22059-21-8	1-Aminocyclopropane-1-carboxylic acid	472.65	
22059-22-9	Acetamide oxime	408.15	
2206-43-1	4-Methoxy-1,3-benzenedicarboxylic acid	538.15	544.15
22065-85-6	1-(Phenylmethyl)-4-piperidinecarboxaldehyde	420.15	
22068-49-1	2-(4′-Hydroxyphenyl)-1,3-dithiolane	392.65	
2207-01-4	cis-1,2-Dimethylcyclohexane	223.25	402.95
2207-04-7	trans-1,4-Dimethylcyclohexane	236.25	392.55
2207-27-4	1,2,3,4-Tetrachloro-5,5-dimethoxy-1,3-cyclopentadiene	300.65	382.15
2207-50-3	Aminorex	410.15	
2207-76-3	6β-Hydroperoxycholest-4-en-3-one	453.15	
22071-15-4	Ketoprofen	367.15	
22071-22-3	3-Benzoylbenzeneacetic acid	385.65	
22071-24-5	3-Benzoylbenzyl bromide	340.65	
22072-19-1	Tetrahydrothiopyran-3-ol	287.15	
2208-04-0	Benzoylcholine	477.65	
2208-07-3	Ethanimidic acid, ethyl ester, hydrochloride (1:1)	385.65	
2208-08-4	Butanimidic acid, ethyl ester, hydrochloride (1:1)	337.65	
2208-15-3	4-Bromo-3-hydroxy-2-naphthalenecarboxylic acid	502.15	
2208-20-0	3-Hydroxy-N-(4-nitrophenyl)-2-naphthalenecarboxamide	531.65	
2208-58-4	2-(2′-Nitrophenyl)benzimidazole	464.65	
2208-89-1	N-Cyanourea	373.15	
22083-74-5	DL-Nicotine	194.15	520.15
22089-22-1	Trofosfamide	323.65	
2209-02-1	ribo-Hexitol, 2,5-anhydro-1,3,6-trideoxy-1-(trimethylammonio)-, iodide	413.65	
2209-86-1	2,2-Bis(chloromethyl)-1,3-propanediol	356.15	432.15
22092-54-2	2-Ethylpentanal		413.65
22092-62-2	2,2,9,9-Tetramethyldecanedioic acid	375.65	
220991-20-8	Lumiracoxib	426.15	
2210-03-9	2-(Bromomethyl)-2-methyl-1,3-propanediol	344.15	
2210-24-4	N-Phenylacrylamide	377.15	
2210-25-5	N-Isopropylacrylamide	333.15	
2210-28-8	Propyl methacrylate		414.15
2210-63-1	Mofebutazone	375.65	
2210-64-2	1-Pyrrolidineacetamide, N-(2,6-dimethylphenyl)-, hydrochloride (1:1)	478.15	
2210-74-4	2-[(2-Methoxyphenoxy)methyl]oxirane	309.15	
2210-77-7	Pyrrocaine	356.15	
2210-93-7	Piperazine, 1-phenyl-, hydrochloride (1:1)	520.15	
22101-87-7	α-[1-(Aminomethyl)propyl]-α-phenylbenzenemethanol	405.15	
22103-14-6	Bufeniode	485.15	
221054-79-1	(+)-Equol	458.65	
22108-55-0	Anthra[2,3-b]thiophene	603.15	
2211-28-1	1,4-Naphthalenediol, 2-methyl-, 1-benzoate	444.15	
2211-31-6	1,4-Naphthalenediol, 2-methyl-, 1,4-dibenzoate	452.65	
2211-57-6	N-(Phenylmethyl)guanidine	457.65	
2211-64-5	Cyclohexylhydroxylamine	410.15	
2211-66-7	N-(Phenylmethylene)cyclohexanamine	413.15	
2211-70-3	2-Chloro-1-butene		331.65
2211-94-1	4-Methoxyphenyl glycidyl ether	321.15	
22113-86-6	Ethylammonium nitrate	281.15	513.15
22113-87-7	Methanamine, nitrate (1:1)	381.4	479.95
22115-41-9	2-Cyanobenzyl bromide	343.65	
22117-79-9	4-Methoxy-3-nitrobenzenesulfonyl chloride	387.15	
22117-85-7	5-(Aminosulfonyl)-2-methoxybenzoic acid	493.15	
22118-09-8	Bromoacetyl chloride		389.15
22118-12-3	2-Bromobutanoyl chloride		424.15
2212-05-7	2-[(4-Chlorophenoxy)methyl]oxirane	305.15	
2212-06-8	2-[(4-Bromophenoxy)methyl]oxirane	324.65	
2212-10-4	(Chloromethyl)diethoxymethylsilane		433.65
2212-11-5	(Chloromethyl)dimethoxymethylsilane		415.65
2212-75-1	N-α-Benzyloxycarbonyl-L-lysine	522.15	
2212-76-2	L-Lysine, N6-[(1,1-dimethylethoxy)carbonyl]-N2-[(phenylmethoxy)carbonyl]-, compd. with N-cyclohexylcyclohexanamine (1:1)	429.65	
2212-81-9	1,3-Bis(tert-butylperoxyisopropyl)benzene	323.65	
2212-99-9	(3S,3aR,5aS,8aS,8bS)-5a,7,8,8a-Tetrahydro-3-hydroxy-7,7-dimethyl-1-oxo-3H,6H-3a,8b-methano-1H-indeno[4,5-c]furan-4-carboxaldehyde	447.65	
22120-50-9	2,3-Dimethylindoline		513.15
22122-18-5	Tetradecanoic acid, 2-hydroxyethyl ester	316.4	
22128-62-7	Chloromethyl chloroformate		380.15
2213-23-2	(±)-2,4-Dimethylheptane		406.05
2213-32-3	2,4-Dimethyl-1-pentene	149.05	354.75
2213-43-6	1-Aminopiperidine		420.15
2213-63-0	2,3-Dichloroquinoxaline	422.65	
2213-66-3	5-(1,1-Dimethylethyl)-3-methyl-1,2-benzenediol	389.65	
2213-67-4	3-(1,1-Dimethylethyl)-6-methyl-1,2-benzenediol	317.65	
2213-68-5	5-Methyl-3-(1,1,3,3-tetramethylbutyl)-1,2-benzenediol	381.15	
2213-81-2	2-Chloro-5-(1,1-dimethylethyl)-1,3-dinitrobenzene	389.65	
2213-82-3	2,5-Dichloro-1,3-dinitrobenzene	378.15	
2213-84-5	Phosphoramidic acid, N-ethyl-, methyl 2,4,5-trichlorophenyl ester	340.65	
22131-35-7	Butalamine	413.65	
22131-79-9	Alclofenac	365.65	
22134-07-2	1,3,5-Trichloro-2-isothiocyanatobenzene	353.65	
22134-75-4	4-Amino-3,5-dichlorobenzenesulfonamide	478.4	
22139-77-1	Pinosylvin	429.15	
2214-28-0	Benzeneethanol, α-[2-(dimethylamino)-1-methylethyl]-α-phenyl-, hydrochloride (1:1)	519.65	
22144-76-9	Cytochalasin C	535.65	
22144-77-0	(-)-Cytochalasin D	542.15	
22146-03-8	Sarverogenin	410.65	
22149-26-4	Glucoerysolin	444.15	
22149-38-8	(3S,3aS,5aS,6R,9aR,9bS)-Decahydro-6,9a-dihydroxy-3,5a-dimethyl-9-methylenenaphtho[1,2-b]furan-2(3H)-one	534.15	
2215-16-9	Bis(diphenylarsine) oxide	363.15	
2215-20-5	N-[(Phenylamino)thioxomethyl]glycine	416.15	
2215-21-6	3,5-Diisopropylsalicylic acid	391.65	
2215-33-0	Pyridine-2-aldehyde 2-pyridylhydrazone	452.65	
2215-63-6	1-Benzyl-1H-indazol-3-ol	440.15	
2215-77-2	4-Phenoxybenzoic acid	432.15	
2215-89-6	4,4′-Oxybis[benzoic acid]		530.65
22150-76-1	Biopterin	573.15	