CAS	name	Tm	Tb
3247-00-5	4-Methyl-α,α-bis(4-methylphenyl)benzenemethanol	367.15	
3247-10-7	Vincadifformine	398.15	
3247-56-1	Acetamide, N,N′-(2-amino-5-nitroso-4,6-pyrimidinediyl)bis-	472.65	
3247-70-9	1,3-Dihydro-4-methyl-2H-imidazole-2-thione	516.65	
32476-67-8	Periplocymarin	421.15	
32479-73-5	1,3-Diethyl-2,4,6(1H,3H,5H)-pyrimidinetrione	325.65	
3248-05-3	4,7-Dimethyl-1,10-phenanthroline	467.65	
3248-28-0	Propionyl peroxide	473.15	
3249-28-3	Muconaldehyde	394.15	
32492-74-3	3,15-Dihydroxy-16,17-dimethoxytricyclo[12.3.1.12,6]nonadeca-1(18),2,4,6(19),14,16-hexaen-9-one	464.15	
325-14-4	7-(Trifluoromethyl)quinoline	340.15	
32503-27-8	Tetrabutylammonium hydrogen sulfate	443.65	
32503-34-7	Tetrahexylammonium hydrogen sulfate	370.65	
32508-22-8	2-Methylbicyclo[2.2.1]heptane-2-carboxylic acid	325.65	
3251-07-8	Methyl 4-aminobutanoate	347.15	
3251-23-8	Cupric nitrate	528.65	
3251-56-7	2-Methoxy-4-nitrophenol	372.65	
3251-69-2	1H-Imidazole-5-acetic acid, hydrochloride (1:1)	400.15	
32511-34-5	(+)-Bornylamine	432.15	
32516-05-5	3,7-Diacetyl-1,3,5,7-tetraazabicyclo[3.3.1]nonane	467.25	
3252-99-1	Cobaloxime	384.15	
32527-15-4	2,4-Hexadiyne-1,6-diol, 1,6-bis(4-methylbenzenesulfonate)	366.15	
32527-55-2	Tiaramide	433.15	
3253-60-9	Laudexium	446.15	
3254-89-5	Diphenidol hydrochloride	486.15	
3254-93-1	5,5-Diphenyl-4-imidazolidinone	456.15	
32545-63-4	Phosphonic acid, [(methylamino)methylene]bis-	513.15	
32557-55-4	2-Benzoyl-N-methylbenzamide	461.65	
3257-18-9	N-[(Phenylmethoxy)carbonyl]-S-(phenylmethyl)-L-cysteine	367.65	
3258-02-4	N4-Hydroxycytidine	443.65	
3258-51-3	Valofane	409.15	
3258-84-2	Acetylfentanyl	369.65	
32580-26-0	N-(2-Benzoyl-4-chlorophenyl)-2-bromoacetamide	398.65	
32582-32-4	2-Tetradecyl-1-octadecanol	311.65	
32588-54-8	2-(1,1-Dimethylpropyl)-9,10-anthracenedione		532.15
32588-76-4	Saytex BT 93	729.15	
32590-21-9	α-D-Glucopyranoside, O-2,3,4,6-tetra-O-acetyl-α-D-galactopyranosyl-(1→6)-1,3,4-tri-O-acetyl-β-D-fructofuranosyl, tetraacetate	408.15	
32595-49-6	4-[(2-Aminoacetyl)amino]butanoic acid	496.15	
32595-59-8	α-Amino-β-hydroxy-2-thiophenepropanoic acid	467.65	
32596-43-3	2,6-Diformyl-4-chlorophenol	399.15	
32597-38-9	4-(Bicyclo[2.2.1]hept-2-ylamino)-1,2-dihydro-1,5-dimethyl-2-phenyl-3H-pyrazol-3-one	407.15	
32598-10-0	2,3′,4,4′-Tetrachlorobiphenyl	387.65	
32598-11-1	PCB 70	376.15	
32598-12-2	PCB 75	338.15	
32598-13-3	PCB 77	456.15	
32598-14-4	PCB 105	389.65	
326-06-7	4,4,4-Trifluoro-1-phenyl-1,3-butanedione	312.9	497.15
326-43-2	Phenyramidol hydrochloride	414.15	
326-56-7	Methyl piperonylate	326.15	
326-61-4	Piperonyl acetate	331.15	
326-62-5	2-Fluorobenzeneacetonitrile		505.15
326-66-9	N-(4-Bromo-2-fluorophenyl)acetamide	432.15	
326-91-0	Thenoyltrifluoroacetone	315.15	370.15
3260-63-7	1H-Indol-3-ol, 1-methyl-, 3-acetate	329.65	
3260-85-3	4-Chloro-1-methoxy-2-methylbenzene	309.65	484.15
3260-87-5	3-Chloro-2-methylphenol	359.15	498.15
3260-88-6	1-Chloro-3-methoxy-2-methylbenzene		486.65
3260-89-7	2-Chloro-6-methoxybenzoic acid	414.15	
32601-57-3	Bicyclo[2.2.1]heptane-1-methanesulfonic acid, 7,7-dimethyl-2-oxo-, (1S)-, compd. with N,N-diethyl-3-phenyl-1,2,4-oxadiazole-5-ethanamine (1:1)	342.15	
32606-02-3	4-Hydroxy-1,3-dimethyl-2(1H)-quinolinone	493.65	
32606-03-4	1,3,3-Trimethyl-2,4(1H,3H)-quinolinedione	343.65	
3261-53-8	Gitaloxin	524.65	
3261-62-9	2-(p-Tolyl)ethylamine		487.15
32619-42-4	Oleuropein	361.15	
3262-03-1	1-Chloro-3,4-dihydro-2-naphthalenecarboxaldehyde	310.15	
3262-72-4	BOC-L-serine	319.15	
3262-86-0	Dodecanoic acid, 4,5-bis[(acetyloxy)methyl]-2-methyl-3-pyridinyl ester, hydrochloride (1:1)	365.15	
3263-79-4	2,3,4,5-Tetraphenyl-1H-pyrrole	494.65	
32634-66-5	(-)-Di-p-toluoyl-L-tartaric acid	419.65	
32634-68-7	(+)-Di-p-toluoyl-D-tartaric acid	435.65	
32634-95-0	17-(Acetyloxy)-6-methylenepregn-4-ene-3,20-dione	522.65	
3264-02-6	N-(2-Benzothiazolylthio)-N-cyclohexyl-2-benzothiazolesulfenamide	406.65	
3264-67-3	Oxonium, triethyl-, (OC-6-11)-hexachloroantimonate(1-) (1:1)	409.15	
3264-82-2	Bis(acetylacetonato)nickel	502.65	500.15
3264-92-4	Pregnan-20-one, 6-fluoro-3,5,17-trihydroxy-16-methyl-, (3β,5α,6β,16α)-	525.65	
32647-67-9	Dibenzylidenesorbitol	463.15	
3265-24-5	1-Methyl-1H-indole-2,3-dione 3-oxime	468.15	
3265-58-5	2,6-Dimethyl-4-oxo-4H-pyran-3-carboxylic acid	372.15	
32651-20-0	1,4-Diphenyl-1,4-cyclohexanediol	498.15	
32654-45-8	2-Pyridinamine, hydrochloride (1:1)	475.65	
32658-67-6	2-Amino-5-iodobenzamide	470.65	
3266-23-7	2-Butylene oxide		344.15
32665-23-9	Isopropyl isovalerate		415.15
32672-69-8	Mesoridazine besylate	447.65	
32673-41-9	4-(Hydroxymethyl)imidazole hydrochloride	366.15	
32677-01-3	L-Glutamic acid, 1,5-bis(1,1-dimethylethyl) ester, hydrochloride (1:1)	407.15	
3268-19-7	(5R,5aR,8aR,9R)-5,8,8a,9-Tetrahydro-9-[[4,6-O-(phenylmethylene)-β-D-glucopyranosyl]oxy]-5-(3,4,5-trimethoxyphenyl)furo[3′,4′:6,7]naphtho[2,3-d]-1,3-dioxol-6(5aH)-one	440.65	
3268-49-3	Methional	198.15	438.15
3268-79-9	Thiocyanic acid, chloromethyl ester		458.15
3268-87-9	Octachlorodibenzo-p-dioxin	604.15	783.15
32687-77-7	3,5-Bis(1,1-dimethylethyl)-4-hydroxybenzenepropanoic acid hydrazide	430.65	
32687-78-8	N,N′-Bis[3-(3′,5′-di-tert-butyl-4′-hydroxyphenyl)propionyl]hydrazine	499.65	
3269-83-8	Benzoic acid, 4-amino-2-hydroxy-, compd. with N,N-dimethyl-γ-phenyl-2-pyridinepropanamine (1:1)	414.65	
32690-93-0	PCB 74	403.15	
32692-19-6	5-Nitroindoline	366.15	
327-19-5	6-Nitro-2-(trifluoromethyl)-1H-benzimidazole	426.15	
327-51-5	1,4-Dibromo-2,5-difluorobenzene	338.15	
327-52-6	1-Bromo-2,4,5-trifluorobenzene	254.15	417.15
327-54-8	1,2,4,5-Tetrafluorobenzene	277.65	363.35
327-56-0	D-Norleucine	573.15	
327-57-1	Caprine	571.65	
327-62-8	Potassium propionate	430.15	
327-92-4	1,5-Difluoro-2,4-dinitrobenzene	347.15	
327-97-9	Chlorogenic acid	479.65	
3270-71-1	Nifuraldezone	543.15	
3270-73-3	1,1′-(1,2-Ethanediyldiimino)bis[2-propanol]	420.4	
3270-74-4	Tetrahydro-1,3-bis(hydroxymethyl)-2(1H)-pyrimidinone	378.15	
3270-78-8	Quinolinium, 4-amino-6-[(1,2-dihydro-2-imino-1,6-dimethyl-4-pyrimidinyl)amino]-1,2-dimethyl-, methyl sulfate, methyl sulfate (1:1:1)	528.65	
3270-86-8	O,O-Diethyl S-(4-nitrophenyl) phosphorothioate	315.65	
32700-63-3	Tetrahydro-2,2,6-trimethyl-2H-pyran		400.65
32703-79-0	4-tert-Butylphthalic anhydride	349.15	
32703-80-3	4-tert-Butylphthalonitrile	331.15	
3271-05-4	N-Methyl-4-methoxy-1,8-naphthalimide	472.15	
32718-86-8	Triphenylbenzene	442.65	
3272-08-0	4-Cyano-2-nitrophenol	417.15	
3272-11-5	Epoxysuccinic acid	452.65	
3272-91-1	5-Nitro-1-naphthalenamine	388.15	
32723-67-4	4-Methoxy-3-methylbenzaldehyde		355.65
32730-64-6	3-Chloro-2-methoxy-1-propene		384.15
32737-33-0	2,2′,3,3′-Tetrahydro-3,3,3′,3′-tetramethyl-1,1′-spirobi[1H-indene]-5,5′,6,6′,7,7′-hexol	535.65	
32738-09-3	5-Methyl-2-thiouridine	490.15	
3274-19-9	N-(9,10-Dihydro-9,10-dioxo-1-anthracenyl)acetamide	488.65	
32741-89-2	4-tert-Butylcaprolactam	428.65	
32741-92-7	2,4′,5-Trimethyl [1,1′-biphenyl]-2,4′,5-tricarboxylate	378.65	
32745-55-4	1,4-Dihydro-1,4-methanoanthracene-9,10-dione	429.15	
32749-94-3	2,3-Dimethylpentanal		414.65
3275-64-7	Desoxymethyltestosterone	420.15	
32750-04-2	3,3′,5,5′-Tetranitro[1,1′-biphenyl]-2,2′-diol	522.15	
32752-54-8	4-(Bromomethyl)benzophenone	385.15	
32760-80-8	Iron(1+), (η5-2,4-cyclopentadien-1-yl)[(1,2,3,4,5,6-η)-(1-methylethyl)benzene]-, hexafluorophosphate(1-) (1:1)	542.15	
32765-69-8	1,2,3-Propanetriol, 1,2,3-triformate	291.15	
32765-81-4	1-Hexanaminium, 6-bromo-N,N,N-trimethyl-, bromide (1:1)	372.15	
32768-54-0	2,3-Dichlorotoluene	279.15	480.65
3277-26-7	1,1,3,3-Tetramethyldisiloxane		345.15
32774-16-6	3,3′,4,4′,5,5′-Hexachlorobiphenyl	471.15	
3278-22-6	1,1′-[Methylenebis(sulfonyl)]bis[ethene]	333.15	
3278-31-7	1,4-Phenylenebismaleimide	573.15	
3278-46-4	Chloropon	338.65	413.15
3278-94-2	1,8,8-Trimethylbicyclo[3.2.1]octane-2,4-dione	493.15	
32780-64-6	Labetalol hydrochloride	461.15	
32787-84-1	Salicylidene-4-amino-1,2,4-triazole	405.15	
3279-07-0	4-tert-Butyl-2-nitrophenol	299.4	
3279-27-4	2-tert-Amylphenol	553.15	403.65
3279-46-7	Phenol, 2-(2-propyn-1-yloxy)-, 1-(N-methylcarbamate)	357.15	
3279-76-3	2-Hydroxy-6-methylpyridine	485.65	555.15
32795-44-1	N-Acetylprocainamide	483.15	
32795-47-4	Nomifensine maleate	473.15	
32795-84-9	7-Bromobenz[a]anthracene	424.65	
32795-85-0	1-Methoxy-2-(4-nitrophenoxy)benzene	374.65	
328-38-1	D-Leucine	566.15	
328-39-2	Leucine	566.15	
328-42-7	Oxaloacetic acid	434.15	
328-50-7	2-Oxoglutaric acid	388.65	
328-51-8	2-Oxooctanoic acid	305.65	
328-56-3	7-Silabicyclo[2.2.1]heptane	340.65	
328-68-7	3-Amino-5-(trifluoromethyl)benzoic acid	414.9	
328-70-1	1-Bromo-3,5-bis(trifluoromethyl)benzene	257.4	
328-74-5	3,5-Bis(trifluoromethyl)benzenamine	441.85	358.15
328-75-6	1-Nitro-3,5-bis(trifluoromethyl)benzene		344.65
328-80-3	3-Nitro-5-(trifluoromethyl)benzoic acid	401.15	
328-84-7	3,4-Dichlorobenzotrifluoride	260.65	446.65
328-87-0	2-Chloro-5-(trifluoromethyl)benzonitrile	312.15	484.15
328-89-2	2-Bromo-4-(trifluoromethyl)benzoic acid	455.65	
328-99-4	3-(Trifluoromethyl)benzoyl fluoride		434.15
3280-71-5	2-Amino-4-(1-methylpropyl)phenol	400.65	
32808-51-8	Bucloxic acid	436.15	
32809-16-8	Procymidone	439.15	
32811-40-8	trans-Coniferyl alcohol	443.65	
32818-79-4	2,3-Pentanedione, 2-oxime	334.65	
3282-00-6	Phenol, 2-cyclopentyl-, 1-(N-methylcarbamate)	364.15	
3282-30-2	Pivaloyl chloride	360.65	380.15
3282-32-4	Diazoacetophenone	322.15	
3282-33-5	1-(4-Chlorophenyl)-2-diazoethanone	385.65	
3282-56-2	1-(1,1-Dimethylethyl)-4-nitrobenzene	301.4	
3282-73-3	Didodecyldimethylammonium bromide	327.65	
3282-99-3	4,4′-Cyclohexylidenebis[benzenamine]	387.15	
32828-81-2	Picotamide	397.15	
3283-05-4	N1,N1,N4,N4-Tetrakis(4-nitrophenyl)-1,4-benzenediamine	664.15	
3283-12-3	Dimethylphosphinic acid	365.15	650.15
3283-17-8	6-Pentyl-1,3,5-triazine-2,4-diamine	447.15	
32832-01-2	Cholesteryl 2,4-dichlorobenzoate	406.85	
32835-25-9	Benzoxazolium, 3-ethyl-2-[3-(3-ethyl-2(3H)-benzoselenazolylidene)-1-propenyl]-, iodide	513.15	
32838-28-1	1-[3-[(2-Ethylhexyl)amino]-1-methyl-3-oxopropyl] butanedioate	319.65	
32838-55-4	2-Benzylpiperidine	305.15	540.65
3284-07-9	1,2,2,3,4,4-Hexaphenylcyclodisilazane	627.15	
3284-51-3	1H-Pyrrole-2-carboxylic acid, 5-methyl-, ethyl ester	373.15	
3284-77-3	1-(Dichloromethyl)-2-nitrobenzene	300.4	
3284-79-5	3-(4-Chlorophenoxy)propanoic acid	411.65	
3284-85-3	(1R,3R,4S,5S)-4-Methyl-1-(1-methylethyl)bicyclo[3.1.0]hexan-3-ol	341.15	
32844-27-2	Carbonic dichloride, polymer with 4,4′-(1-methylethylidene)bis[2,6-dibromophenol] and 4,4′-(1-methylethylidene)bis[phenol]	418.15	
3285-87-8	Pregna-5,16-dien-20-one, 3-(1-oxopropoxy)-, (3β)-	450.15	
32854-75-4	Lappaconitine	499.65	
32857-62-8	4-(Trifluoromethyl)benzeneacetic acid	357.15	
32857-63-9	4-(1,1-Dimethylethyl)benzeneacetic acid	352.65	
3286-45-1	Butanoic acid, 1,1′-[dithiobis[3-[1-[[(4-amino-2-methyl-5-pyrimidinyl)methyl]formylamino]ethylidene]-3,1-propanediyl]] ester	359.15	
3286-46-2	Sulbutiamine	414.15	
3286-98-4	2,4-Bis(1,1-dimethylethyl)-6-(phenylmethyl)phenol	327.15	
32861-85-1	Chlomethoxyfen	386.65	533.15
32862-97-8	3-(3-Bromophenyl)-2-propenoic acid	451.15	
32865-61-5	Phenol, 2-iodo-, 1-acetate		399.65
32868-25-0	Ethyl 4-amino-α-methylbenzeneacetate	308.15	
3287-12-5	Dicetyl thiodipropionate	333.65	
3287-84-1	Phosphorodithioic acid, O,O-dipropyl ester, potassium salt (1:1)	438.15	
3287-99-8	Benzylammonium chloride	535.65	
32873-56-6	2-Acetylamino-5-mercapto-1,3,4-thiadiazole	482.15	
3288-80-0	Hydrazinium, 1,1,1-trimethyl-, iodide (1:1)	511.15	
3288-99-1	(4-tert-Butylphenyl)acetonitrile		414.65
32886-97-8	Pivmecillinam	392.15	
32887-01-7	Mecillinam	429.15	
32889-48-8	Cycle	443.15	
3289-28-9	Ethyl cyclohexanecarboxylate	393.15	469.15
3289-50-7	2,6-Dimethoxy-4-pyrimidinamine	398.15	
32890-94-1	2-Fluoro-6-(trifluoromethyl)benzoic acid	356.15	
328947-93-9	LGD 2226	462.15	
32899-41-5	1-Palmitoyl-sn-glycerol	342.15	
329-15-7	4-(Trifluoromethyl)benzoyl chloride	337.65	
329-20-4	p-Acetamidobenzenesulfonyl fluoride	449.15	
329-56-6	(-)-Norepinephrine hydrochloride	418.95	
329-63-5	(±)-Epinephrine hydrochloride	430.15	
329-65-7	(±)-Adrenaline	485.15	
329-71-5	2,5-Dinitrophenol	381.15	
329-79-3	1-(4-Fluorophenyl)ethanone oxime	348.15	
329-89-5	6-Aminonicotinamide	473.15	
3290-24-2	3-Ethyl-2-propylquinoline	330.65	
3290-70-8	2,4,4,4-Tetrachloro-1-butanol		520.15
3290-92-4	Trimethylolpropane trimethacrylate		493.15
3290-99-1	4-Methoxybenzohydrazide	408.65	
32903-07-4	5-(4-Methylphenylazo)-8-hydroxyquinoline	447.15	
32909-92-5	Sulfametrole	422.65	
3291-00-7	Salicylhydrazone	369.15	
3291-03-0	3,4,5-Trimethoxybenzohydrazide	431.65	
3292-42-0	Benzenethiol, 2-amino-, hydrochloride (1:1)	490.15	
3293-09-2	Silanol, 1-ethenyl-1,1-dimethyl-, 1-acetate		420.65
3293-32-1	2,6-Dicyclohexylidenecyclohexanone	418.65	
3293-47-8	Dihydro-β-ionol	312.65	
3293-89-8	1,4-Dimethyl 2,5-dichloro-1,4-benzenedicarboxylate	410.65	
3294-03-9	2,2′-Thiobis[4-(1,1,3,3-tetramethylbutyl)phenol]	406.15	
3294-57-3	Phenyl(trichloromethyl)mercury	389.15	
3294-58-4	(Bromodichloromethyl)phenylmercury	383.65	
3294-60-8	Phenyl(tribromomethyl)mercury	392.65	
32940-15-1	3,4-Dihydro-5-methoxy-2(1H)-naphthalenone	309.15	
32943-25-2	3-Chloroiminodibenzyl	361.15	
3295-60-1	2-Methoxyacridine	377.15	
3295-64-5	1,2,3,4-Tetrahydroacridine	329.15	
32953-65-4	Octyl (9Z)-9-octadecenoate	263.85	
32953-89-2	Rimiterol	476.65	
32959-60-7	2-(2′-Methylphenyl)benzoxazole	337.15	
3296-43-3	Tripetroselinin	299.35002	
3296-45-5	2-Oxocyclopentanepropanoic acid	310.15	
3296-50-2	rel-(3aR,7aR)-Octahydro-1H-indene		432.15
3296-90-0	2,2-Bis(bromomethyl)-1,3-propanediol	385.15	
329689-23-8	(±)-Monastrol	458.15	
32970-45-9	2-(1,1-Dimethylethoxy)butane		387.65
32980-71-5	2,4,6,8-Tetrachloropyrimido[5,4-d]pyrimidine	529.15	
32981-86-5	10-Deacetylbaccatin III	495.15	
32986-56-4	Tobramycin	437.15	
3299-32-9	2,4,5-Trimethyl-1,3-dioxolane		376.15
3299-38-5	4-(Diethylamino)-2-butanone	356.15	
3299-61-4	N1,N2-Bis(4-methylphenyl)ethanediamide	400.15	
32994-52-8	(4-Hydroxyphenyl)ferrocene	435.15	
330-11-0	4-(Trifluoromethoxy)benzoyl fluoride		435.15
330-12-1	4-(Trifluoromethoxy)benzoic acid	425.15	
330-13-2	4-Nitrophenyl phosphate	426.15	
330-17-6	4-[(Trifluoromethyl)thio]benzoic acid	433.65	
330-54-1	Diuron	431.65	
330-55-2	Linuron	366.65	
330-64-3	Phenol, 3,5-bis(1-methylethyl)-, 1-(N-methylcarbamate)	354.15	
330-68-7	2-Fluoro-N-phenylacetamide	344.65	
330-95-0	Nicarbazin	539.15	
3300-51-4	4-(Trifluoromethyl)benzylamine	316.15	390.15
3300-67-2	2-Chlorochalcone	324.65	
33005-95-7	Tiaprofenic acid	369.15	
33007-61-3	Bis(2-benzimidazolylmethyl) sulfide	494.15	
33008-67-2	5-Amino-2-(2,4-dichloro-6-methoxyphenyl)-2,4-dihydro-3H-pyrazol-3-one	492.15	
3301-49-3	Kumatakenin	526.65	
33017-87-7	6-Chloro-2-(methylthio)-4(3H)-quinazolinone	493.15	
33018-91-6	1-Ethyl heptanedioate	283.15	
33021-02-2	1-(1,1-Dimethylethoxy)-2-methylpropane	162.2315	386.33
33025-60-4	1-(3-Hydroxy-1H-indol-1-yl)ethanone	409.15	
3303-31-9	L-Leucyl-L-leucine	543.15	
3303-45-5	L-Alanyl-L-valine	511.15	
3303-55-7	L-Phenylalanyl-L-leucine	532.15	
3303-84-2	BOC-β-alanine	349.65	
33032-12-1	1,2-Ethanediamine, N1,N1-dimethyl-N2-2-pyridinyl-N2-(2-thienylmethyl)-, (2E)-2-butenedioate (2:3)	408.65	
3304-51-6	N5-[(Phenylmethoxy)carbonyl]-L-ornithine	527.15	
3304-59-4	2-(4-Nitrophenyl) 1-(phenylmethyl) (2S)-1,2-pyrrolidinedicarboxylate	367.9	
3304-70-9	4,5-Dimethyl 1H-imidazole-4,5-dicarboxylate	474.65	
3304-97-0	1,1-Dimethylethyl N,N-dimethylcarbamo(dithioperoxo)thioate	343.65	
33045-52-2	Methyl 2-methoxy-5-sulfamoylbenzoate	432.65	
33045-53-3	Benzoic acid, 5-(aminosulfonyl)-2-methoxy-, ethyl ester	422.65	
33049-88-6	2-Chloro-9-(2-propen-1-yl)-9H-thioxanthen-9-ol	350.65	
3306-06-7	2-Amino-1-phenyl-1,3-propanediol	361.15	
3306-52-3	Viridin	518.15	
3306-62-5	2-Aminobenzenesulfonamide	426.15	
33069-62-4	Paclitaxel	487.65	
3307-01-5	4-(1-Propylpentyl)phenol	309.65	
3307-39-9	2-(4-Chlorophenoxy)propionic acid	339.15	
33073-01-7	1,9-Dimethylxanthine	623.15	
33078-43-2	4-Thiazolidinecarboxylic acid, 2,2,5,5-tetramethyl-, hydrochloride (1:1)	482.15	
33079-11-7	(1-Hydroxy-2-naphthalenyl)-4-morpholinylmethanone	429.65	
33079-56-0	3,4,4-Trimethyl-1,2-cyclopentanedione	356.15	
3308-02-9	2-Phenyl-3-pyridinol	478.15	593.15
3308-64-3	1,2-Dihydro-3-methylbenz[j]aceanthrylen-2-ol	492.65	
33083-83-9	5-Undecanone	275.15	500.15
33089-61-1	Amitraz	359.65	
33094-66-5	2-Nitrobenzofuran	424.65	
33094-74-5	5-Chloro-3-methyl-2-nitrobenzofuran	437.15	
33095-94-2	N-1,3-Benzodioxol-5-yl-N-(1-methylethyl)urea	392.65	
33098-65-6	N-(2-Ethylphenyl)acetamide	384.55	
33098-75-8	N-(2,6-Dimethylphenyl)butanamide	410.15	
33098-77-0	N-(2,6-Dimethylphenyl)pentanamide	345.65	
331-25-9	3-Fluorophenylacetic acid	316.15	
331-39-5	Caffeic acid	498.15	
331-62-4	3-Fluoro-4-methoxybenzonitrile	369.65	
331-64-6	2-Fluoro-4-methoxybenzaldehyde	320.15	
3310-41-6	6-Hydrazinyl-2(1H)-pyrimidinone	580.65	
3310-68-7	N5-Phenyl-1H-1,2,4-triazole-3,5-diamine	350.15	
33100-27-5	15-Crown-5		390.65
3311-94-2	1,1′-(4-Chloro-1-butenylidene)bis[4-fluorobenzene]		439.15
33112-52-6	Dodecanedioic acid, polymer with azacyclotridecan-2-one, hexahydro-2H-azepin-2-one and 1,6-hexanediamine	388.15	
3312-08-1	1,1′-(4-Chlorobutylidene)bis[benzene]		455.65
3312-77-4	1-(Hexadecylthio)hexadecane	335.15	
33125-97-2	Etomidate	340.15	
33130-03-9	3-(2,3,4-Trimethoxyphenyl)-2-propenoic acid	445.15	
33130-04-0	2,3,4-Trimethoxybenzenepropanoic acid	349.15	
3314-30-5	1H-Benzimidazole-2-carboxaldehyde	508.15	
3314-35-0	3-Amino-1-phenyl-2-pyrazoline	442.15	
33140-65-7	N-Dodecylbenzamide	341.15	
33142-21-1	Ethyl 2-chloro-3-oxopropanoate	362.15	
33145-10-7	2,2′-Isobutylidenebis(4,6-dimethylphenol)	401.15	
33146-45-1	PCB 10	309.15	
33148-55-9	2-(2-Phenylacetyl)benzoic acid	449.65	
33155-83-8	1,7-Dihydro-1,7-dimethyl-6H-purin-6-one	518.65	
3316-09-4	4-Nitrocatechol	448.15	
3316-24-3	2-Methoxy-β-nitrostyrene	320.4	
3316-46-9	Apigenin triacetate	455.15	
3317-75-7	4H-Benzo[a]quinolizine, 3-ethyl-1,6,7,11b-tetrahydro-9,10-dimethoxy-2-[[(1R)-1,2,3,4-tetrahydro-6,7-dimethoxy-1-isoquinolinyl]methyl]-, hydrochloride (1:1), (11bS)-rel-	516.15	
331741-94-7	Muraglitazar	412.8	
33175-34-7	3,4-Dichloro-N-hydroxybenzenamine	348.15	
33178-86-8	Alinidine	401.15	
33189-72-9	(E)-11-Tetradecenyl acetate		390.15
3319-01-5	Cyclohexylpiperidine	346.65	372.15
3319-31-1	Trioctyl trimellitate		687.15
3319-99-1	2-(2-Thienyl)pyridine	334.65	
332-14-9	1-(2-Phenylethyl)piperidine	464.15	
332-15-0	1-(2-Phenylethenyl)piperidine	302.65	
332-25-2	4-(Trifluoromethoxy)benzonitrile		465.65
332-33-2	N′-(4-Fluorophenyl)-N,N-dimethylurea	401.65	
332-34-3	2,2,2-Trifluoro-N-(4-methoxyphenyl)acetamide	386.9	
332-35-4	2-Fluoro-N-(4-methoxyphenyl)acetamide	371.15	
332-48-9	1-(2-Bromoethoxy)-4-fluorobenzene	332.15	
332-50-3	2-(4-Fluorophenoxy)acetamide	383.15	
332-51-4	2-[(4-Fluorophenyl)thio]acetic acid	343.15	
332-77-4	2,5-Dimethoxy-2,5-dihydrofuran		434.15
332-80-9	1-Methyl-L-histidine	542.65	
3320-83-0	2-Chlorophenyl isocyanate	303.65	473.15
3320-86-3	2-Nitrophenyl isocyanate	314.15	
3320-87-4	3-Nitrophenyl isocyanate	324.15	
33203-82-6	Phenoxazin-5-ium, 3,7-bis(diethylamino)-, chloride (1:1)	467.65	
33204-32-9	β-D-Glucopyranosylurea	480.15	
3321-03-7	Glycylphenylalanine	540.15	
3321-06-0	Benzeneacetic acid, α-(2-ethylbutoxy)-α-phenyl-, 2-(dimethylamino)ethyl ester, hydrochloride (1:1)	414.15	
3321-50-4	1,1′-(1,2-Ethanediyl)bis[cyclohexane]	284.65	545.65
3321-86-6	10,10′-(1,2-Ethenediylidene)bis[9(10H)-anthracenone]	493.15	
33213-65-9	β-Endosulfan	486.45	
3322-93-8	1,2-Dibromo-4-(1,2-dibromoethyl)cyclohexane	346.15	
33222-69-4	Carbamic acid, 3-methylphenyl ester	412.15	
33228-45-4	4-Hexylaniline	349.4	
33229-34-4	HC Blue 2	368.65	
33229-89-9	N,N-Dimethylglycine ethyl ester	408.15	
3323-00-0	2-(4-Nitrophenyl)-3-(1-piperidinylmethyl)imidazo[1,2-a]pyridine	442.65	
3323-26-0	2-(4-Nitrophenyl)imidazo[1,2-a]pyridine	536.65	
3323-53-3	Hexanedioic acid, compd. with 1,6-hexanediamine (1:1)	458.15	
33232-06-3	Thiazolium, 3-[(4-amino-2-methyl-5-pyrimidinyl)methyl]-5-(2-hydroxyethyl)-4-methyl-, iodide (1:1)	437.15	