CAS	name	Tm	Tb
20517-94-6	Benzothiazolium, 3-ethyl-2-[[3-[(3-ethyl-2(3H)-benzothiazolylidene)methyl]-5,5-dimethyl-2-cyclohexen-1-ylidene]methyl]-, iodide (1:1)	488.65	
2052-01-9	Bromoisobutyric acid	321.65	472.15
2052-06-4	4-Bromo-N,N-diethylbenzenamine	311.15	543.15
2052-07-5	2-Bromobiphenyl	274.65	570.15
2052-14-4	Butyl salicylate	267.25	544.15
2052-15-5	Butyl levulinate		510.65
2052-46-2	1,4-Benzenediamine, N1,N1-dimethyl-, hydrochloride (1:1)	492.15	
2052-49-5	Tetrabutylammonium hydroxide	300.15	
20521-44-2	1,11-Dodecadiyne	300.15	
20526-97-0	3-(p-Chlorobenzylidene)phthalide	425.65	
2053-25-0	1H-Benzimidazole-1-ethanamine, 2-[(4-ethoxyphenyl)methyl]-N,N-diethyl-5-nitro-, hydrochloride (1:1)	379.15	
2053-29-4	Azomethine	384.9	
20535-83-5	O6-Methylguanine	519.65	
20537-22-8	N-[1-Phenyl-3-(1-piperidinyl)propyl]benzamide	385.65	
20537-88-6	Amifostine	433.65	
2054-81-1	Strychnidine	529.65	
20541-49-5	Bis(4-chlorophenyl) diselenide	362.15	
205432-12-8	Ethyl 4-[2-(2,4-dinitrophenoxy)-1-oxidodiazenyl]-1-piperazinecarboxylate	413.65	
20544-37-0	2,4,8,10-Tetraoxa-3,9-diphosphaspiro[5.5]undecane, 3,9-bis(phenylmethyl)-, 3,9-dioxide	528.65	
20545-92-0	N-(2-Hydroxyethyl)-10-undecenamide	330.15	
2055-40-5	1-Ethenyl-4-(1-methylethyl)benzene	228.45	477.25
2055-44-9	Perisoxal	380.65	
2055-46-1	Tetrahydropyrimidine-2-thione	484.15	
20554-84-1	(-)-Parthenolide	388.65	
20555-91-3	1,2-Dichloro-4-iodobenzene	303.65	
20556-89-2	Benzoic acid, 4-(1,1-dimethylethyl)-, 1,1′-(dibutylstannylene) ester	368.65	
20559-55-1	Oxibendazole	503.15	
20562-02-1	α-Solanine	558.15	
20562-03-2	α-Chaconine	516.15	
2057-43-4	2-(3-Pentenyl)pyridine		489.15
2057-49-0	4-(3-Phenylpropyl)pyridine		595.15
2057-84-3	n-Valeraldehyde 2,4-dinitrophenylhydrazone	378.15	
20571-42-0	7-Diethylaminocoumarin	361.65	
20574-50-9	Morantel	513.15	
2057463-74-6	(2′R,3aS,4E,6′R,11R,12R,13S,14R,15R,16S,17R,18E,22S,26S,27aS,28R)-13-[[(2S,5S,6S)-5-(Dimethylamino)tetrahydro-6-methyl-2H-pyran-2-yl]oxy]-2,3,3′,3a,4′,5′,6,6′,7,8,9,10,11,12,13,14,15,16,17,22,23,26,27,27a-tetracosahydro-11,12,14,16,17,27a-hexahydroxy-6′-[(2R)-2-hydroxybutyl]-2,2,11,15,17,28-hexamethylspiro[22,26-methano-20H,24H-furo[2,3-h][1,5]dioxacyclohexacosin-24,2′-[2H]pyran]-20-one	459.15	
20577-33-7	N-Ethylidene-1-propanamine		347.65
20577-61-1	Pentanoic acid, 2,4-dioxo-, methyl ester	335.15	
20579-43-5	3,4,5-Trimethylpyridine	307.25	479.15
2058-46-0	Oxytetracycline hydrochloride	451.15	
2058-52-8	Clotiapine	392.15	
2058-53-9	11-(4-Methyl-1-piperazinyl)dibenz[b,f][1,4]oxazepine	370.65	
2058-62-0	N-Methyl-4-[2-(3-methylphenyl)diazenyl]benzenamine	382.65	
2058-66-4	N-Ethyl-N-methyl-4-(2-phenyldiazenyl)benzenamine	343.65	
2058-67-5	N-Ethyl-4-(2-phenyldiazenyl)benzenamine	360.65	
2058-72-2	5-Bromo-1-methylisatin	437.15	
2058-74-4	1-Methylisatin	404.65	
2058-89-1	1,1-Bis(4-pyridine aldoxime)methane dibromide	508.15	
20583-04-4	1,1,6,6-Tetraphenylhexa-2,4-diyne-1,6-diol	413.65	
20583-44-2	2-(2-Chloroethenyl)-1H-isoindole-1,3(2H)-dione	375.15	
20589-63-3	3-Nitroperylene	483.65	
20589-85-9	1,2,3,3-Tetrachloro-1-propene		435.15
20591-23-5	Quinolinium, 1-ethyl-2-[3-(1-ethyl-4(1H)-quinolinylidene)-1-propen-1-yl]-, iodide (1:1)	513.65	
20592-10-3	2-Ethyl-1-octanol	314.65	
20592-42-1	Estra-1,3,5(10),16-tetraene-3,17-diol, 3,17-diacetate	421.65	
20592-44-3	(2α,5α,17β)-17-Hydroxy-2-(hydroxymethyl)-17-methylandrostan-3-one	472.65	
20594-83-6	Nalbuphine	503.65	
20595-30-6	(2E)-3-(3-Fluorophenyl)-2-propenoic acid	372.15	
206-06-4	Naphtho[2,3-b]fluoranthene	502.65	
206-44-0	Fluoranthene	384.15	657.15
206-49-5	Acenaphtho[1,2-b]pyridine	369.65	
20600-69-5	1,2,3-Oxadiazolium, 3-cyclohexyl-5-hydroxy-, inner salt	339.65	
20601-38-1	[1,1′-Bicyclohexyl]-4,4′-diol	478.65	
20601-83-6	Mercury selenide (HgSe)	940.15	
20602-80-6	Diacrylamide	451.15	
20602-83-9	N-(Aminocarbonyl)-2-methyl-2-propenamide	406.65	
20602-86-2	1,2-Dipentyl ethanedioate	264.15	
20605-01-0	Propanedioic acid, 2,2-bis(hydroxymethyl)-, 1,3-diethyl ester	316.15	
2061-64-5	Ergosterol peroxide	451.15	
2061-86-1	Androst-5-ene-3,17-diol, 17-methyl-, 3,17-diacetate, (3β,17β)-	418.65	
20611-11-4	1-Mercapto-2-dodecanol	299.65	
20611-21-6	2-(Phenylsulfonyl)ethanol	394.65	
2062-25-1	3-[2-(Trifluoromethyl)phenyl]-2-propenoic acid	479.15	
2062-77-3	Trifluperidol hydrochloride	473.65	
2062-78-4	Pimozide	489.15	
2062-84-2	Benperidol	444.05	
2062-98-8	2,3,3,3-Tetrafluoro-2-(1,1,2,2,3,3,3-heptafluoropropoxy)propanoyl fluoride		329.15
20624-92-4	3-Chloro-4-hydroxy-5-methoxybenzenemethanol	383.65	
20626-39-5	1,1′-Diethyl (2Z,2′Z)-3,3′-thiobis[2-propenoate]	368.15	
20626-40-8	1,1′-Diethyl (2E,2′E)-3,3′-thiobis[2-propenoate]	375.65	
20628-36-8	Tetrahydro-4,6,6-trimethyl-2H-pyran-2-one	300.15	
20628-59-5	1,3-Dioxolane-2-thione	328.65	
20632-35-3	N,N′-Bis(2,4,6-trichlorophenyl)urea	568.15	
20633-11-8	Hexyl nitrate		444.15
20633-84-5	Luteolin 7-O-rutinoside	467.15	
20636-41-3	5-Hydroxy-2,4(1H,3H)-pyrimidinedione	583.15	
206361-99-1	Darunavir	347.15	
20637-09-6	Methyl 4-aminobenzenebutanoate	315.15	
20637-49-4	1,2,3-Trimethoxypropane		421.15
20641-28-5	Diethyl P-[(4-chlorophenyl)hydroxymethyl]phosphonate	328.65	
20643-28-1	β-D-Glucopyranose, 1-thio-, 1-[4-hydroxy-N-(sulfooxy)benzeneethanimidate], ion(1-), N,N,N-trimethylmethanaminium	457.15	
20644-12-6	p-Carborane	533.15	
2065-00-1	Filicinic acid	487.65	
2065-23-8	Methyl 2-phenoxyacetate	518.15	518.15
2065-27-2	Benzoic acid, 2,6-dimethoxy-, methyl ester	361.15	
2065-66-9	Phosphonium, methyltriphenyl-, iodide (1:1)	455.65	
2065-67-0	Tetraphenylphosphonium iodide	611.15	
2065-70-5	2,6-Dichloronaphthalene	413.65	558.15
20651-71-2	4-Butylbenzoic acid	379.65	
20651-73-4	4-Butylbenzonitrile		427.15
20651-75-6	1-Butyl-4-nitrobenzene	340.65	
20653-11-6	1,1′-(1-Methylethylidene)bis[4-(4-nitrophenoxy)benzene]	392.15	
2066-89-9	Pasiniazid	416.15	
20662-53-7	1,3-Dihydro-1-(4-piperidinyl)-2H-benzimidazol-2-one	452.15	
20662-83-3	4,5-Dimethyloxazole	385.65	405.15
20662-84-4	Trimethyloxazole		407.15
20662-90-2	2-Methyl-4-phenyloxazole	315.65	
20665-85-4	Isobutavan	302.65	
20667-13-4	Pyridinium, 1-hexadecyl-2-methyl-, bromide (1:1)	391.65	
20667-19-0	Iodomethyltriphenylphosphorane	451.65	
20668-29-5	3,8-Dimethylquinoline		542.15
20669-04-9	3,3-Dimethyl-2-pentanone	351.65	404.65
2067-33-6	5-Bromopentanoic acid	312.15	
2067-58-5	N1,N1-Bis(2-chloroethyl)-1,4-benzenediamine	493.15	
20676-54-4	Methyl 2-(acetylamino)-5-chlorobenzoate	403.15	
20677-77-4	Ethanol, 2-fluoro-2,2-dinitro-, carbonate (2:1) (ester)	317.65	
20679-94-1	2-Hydroxy-4-[[(phenylamino)thioxomethyl]amino]benzoic acid	444.15	
2068-02-2	Quercetin 3,7-dimethyl ether	507.65	
2068-24-8	2,2′-[Methylenebis(thio)]bis[acetic acid]	395.65	
20680-07-3	N-(4-Bromophenyl)-N′-methylurea	494.65	
20681-51-0	Cyclohexanepropanoic acid, methyl ester		408.9
20684-06-4	1H-Purine-2,6-dione, 7-[2-[ethyl(2-hydroxyethyl)amino]ethyl]-3,7-dihydro-1,3-dimethyl-8-(phenylmethyl)-, hydrochloride (1:1)	458.65	
2069-32-1	7-Nitro-2-(trifluoromethyl)-10H-phenothiazine	480.65	
2069-41-2	(4-Bromophenyl)(4-fluorophenyl)methanone	380.65	
20691-84-3	3-[2-[4-(Dimethylamino)phenyl]diazenyl]benzoic acid	480.65	
20696-57-5	L-Tryptophanamide	527.65	
20698-30-0	trans-4-(1,1-Dimethylpropyl)cyclohexanol	320.15	
207-08-9	Benzo[k]fluoranthene	490.15	753.15
207-83-0	13H-Dibenzo[a,g]fluorene	447.65	
207-84-1	7H-Dibenzo[a,g]carbazole	510.65	
20707-70-4	(1Z)-3-Phenyl-2-propenal oxime	336.65	
20708-36-5	P,P′-[1,2-Ethanediylbis[imino[(2-hydroxyphenyl)methylene]]]bis[phosphonic acid]	524.15	
2071-20-7	Bis(diphenylphosphino)methane	433.15	
20710-38-7	(2E)-3-Methyl-2-hexene		367.65
20711-10-8	(Z)-11-Tetradecenyl acetate		390.15
20717-79-7	1-Bromo-2-naphthalenecarboxylic acid	533.15	
20717-86-6	Chlorotriisopropoxytitanium	308.15	
2072-71-1	S-(Aminocarbonyl)-L-cysteine	430.65	
20720-12-1	2-Propen-1-ol, 2-methyl-, 1-propanoate		414.15
20725-03-5	(±)-Fustin	500.15	
20726-63-0	Diethylammonium acetate	345.65	
20728-73-8	(2R,3S)-2-[3,4-Bis(phenylmethoxy)phenyl]-3,4-dihydro-5,7-bis(phenylmethoxy)-2H-1-benzopyran-3-ol	388.65	
20730-02-3	Propanoic acid, 2-phenylhydrazide	431.15	
20731-63-9	4-Chloro-3,5-dinitrobenzamide	459.15	
20733-11-3	4-Methoxypyridazine	316.65	
20734-57-0	N1,N1,N8-Trimethyl-1,8-naphthalenediamine	303.65	
20734-58-1	Proton sponge	458.15	
20736-08-7	Saikosaponin C	585.15	
20739-58-6	2-Octyn-1-ol	255.15	
20743-50-4	1-Methyl-5-phenyl-1H-tetrazole	375.65	
20743-57-1	N-[1,1′-Biphenyl]-4-ylbenzamide	503.15	
20748-72-5	Ethanol, 2-amino-, nitrate (1:1)	324.15	528.55
2075-45-8	4-Bromopyrazole	368.15	
2075-46-9	4-Nitropyrazole	434.65	
20751-90-0	WR 3689	415.15	
20754-04-5	3-Methyl-4-octanone		447.15
20758-58-1	Acetic acid, 2-methoxy-, ion(1-)	413.65	
2076-36-0	Methyl 3-methyl-2-benzofurancarboxylate	342.65	
20762-71-4	Pyridinium, 1-dodecyl-, 4-methylbenzenesulfonate (1:1)	408.65	
20763-30-8	2-(1,4-Cyclohexadienyl)glycine	570.15	
20766-37-4	4-(2-Chlorophenyl)-3-buten-2-one	297.65	
20766-99-8	4-Methyl-2,6-bis(1-methylethyl)phenol	363.15	522.65
20769-85-1	2-Bromoisobutyryl bromide		436.15
2077-13-6	1-Chloro-2-(1-methylethyl)benzene	198.75	464.25
2077-46-5	2,3,6-Trichlorotoluene	316.65	
20772-23-0	Thymol β-D-glucopyranoside	373.15	
20773-28-8	Hydrazinium nitroformate	396.15	
207740-26-9	2,5-Dimethoxy-4-(n)-propylthiophenethylamine	408.15	
20776-03-8	3H-Pyrazol-3-one, 1,2-dihydro-1,5-dimethyl-2-phenyl-, perchlorate (1:1)	414.65	
20776-45-8	5-(Benzyloxy)tryptamine	522.15	
20776-50-5	2-Amino-4-bromobenzoic acid	495.15	
20779-14-0	1-Hexadecanol, 1-methanesulfonate	328.4	
2078-12-8	Trimethylsilyl benzoate	123.15	2483.15
2078-54-8	Propofol	291.15	515.15
2078-71-9	(2-Hydroxyethyl)urea	367.65	
20780-74-9	7-Bromoisatin	476.65	
20780-76-1	5-Iodoisatin	537.65	
20781-21-9	Benzenemethanamine, 2,4-dimethoxy-, hydrochloride (1:1)	463.15	
20782-94-9	4-Chloro-2,5-dimethylbenzenamine	365.65	
20784-50-3	Isobavachalcone	430.45	
20786-75-8	Ethane, 1,1′,1′′,1′′′-[methanetetrayltetrakis(oxy)]tetrakis[2-fluoro-2,2-dinitro-	409.15	
20788-07-2	Resorantel	502.15	
2079-00-7	Blasticidin S	508.65	
2079-53-0	1-[4-(2-Propen-1-yloxy)phenyl]ethanone	293.15	
2079-95-0	1-Tetradecanethiol	362.65	451.15
20799-24-0	Norethisterone oxime acetate	502.65	
208-96-8	Acenaphthylene	365.65	543.15
20802-57-7	Pregna-3,5-diene-21-carboxylic acid, 17-hydroxy-3-methoxy-, γ-lactone, (17α)-	487.15	
20803-88-7	1,1-Ethanediol, 2-phenyl-, 1,1-diacetate	337.65	
20809-78-3	4-Methyl-α-(4-methylphenyl)benzeneacetic acid	417.15	
20815-29-6	4-Ethyl-3-methylpyridine		465.65
20816-12-0	Osmium tetroxide	313.75	403.15
20818-81-9	2-Hydroxy-2-methylpropanal	346.65	
20819-54-9	Phosphine selenide, trimethyl-	357.15	
2082-21-5	1-Phenylcycloheptanol	296.15	
2082-59-9	Valeric anhydride	217.05	500.15
2082-61-3	(1-Methyl-1-propen-1-yl)benzene		461.15
2082-64-6	(4-Chlorophenyl)methyl thiocyanate	313.65	
2082-76-0	Decanoic anhydride	297.85	405.65
2082-77-1	Undecanoic acid, anhydride	308.15	500.65
2082-79-3	Antioxidant 1076	322.65	
2082-80-6	Tristearyl phosphite	313.15	
2082-81-7	Butanediol dimethacrylate	499.43	
2082-84-0	Decyltrimethylammonium bromide	507.15	
20820-82-0	2,3,4,6-Tetramethylpyridine		476.15
20821-91-4	N-(2-Benzoyl-4-nitrophenyl)-2-chloroacetamide	449.15	
20825-71-2	2(3H)-Furanone	321.65	
20826-04-4	5-Bromonicotinic acid	455.65	
20827-47-8	Morphinan-17-carbonitrile, 3,6-bis(acetyloxy)-7,8-didehydro-4,5-epoxy-, (5α,6α)-	508.15	
2083-09-2	2,5-Bis(4-biphenylyl)oxazole	515.15	
2083-68-3	Octyltrimethylammonium bromide	472.15	
2083-91-2	(Dimethylamino)trimethylsilane		359.15
20830-75-5	Digoxin	508.15	
20830-81-3	Daunorubicin	481.65	
20831-76-9	Gentiopicroside	464.15	
20834-06-4	Cetyl laurate	313.65	
20834-59-7	α,α,4-Trimethylbenzeneethanol	313.65	
20834-61-1	2-Bromo-4,6-di-tert-butylphenol	333.15	414.65
20838-44-2	3-Nitrophenyl β-D-glucopyranoside	444.65	
2084-19-7	2-Pentanethiol	104.15	386.05
2084-33-5	4H-1,2,4-Triazolium, 1-phenyl-4-(phenylamino)-, chloride (1:1)	483.15	
2084-69-7	1,1,3,4,4,6-Hexamethyl-1,2,3,4-tetrahydronaphthalene	339.65	
20846-91-7	Ethylenediamine-N,N′-disuccinic acid	494.15	
20847-13-6	Dianthoside	405.15	
20849-78-9	4-(2-Chloroethyl)benzoic acid	460.65	
2085-33-8	Tris-(8-hydroxyquinoline)aluminum	687.15	
20850-43-5	Piperonyl chloride	293.65	
20850-49-1	2-(3,4-Dimethoxyphenyl)-3-methylbutanenitrile	323.15	
20854-76-6	2-Nitroso-1H-indene-1,3(2H)-dione	490.65	
20859-73-8	Aluminum phosphide	2823.15	
2086-26-2	Hydroxylamine, O-[(4-nitrophenyl)methyl]-, hydrochloride (1:1)	466.15	
2086-83-1	Berberine	418.15	
2086-86-4	4-Hydroxybenzyl isothiocyanate	315.15	
20861-99-8	2-(2-Naphthalenyl)oxirane	330.65	
20867-15-6	Pregn-5-en-20-one, 3-(formyloxy)-17-hydroxy-, (3β)-	475.15	
20867-46-3	(3β)-3-(Acetyloxy)-6-methylpregna-5,16-dien-20-one	395.15	
20868-98-8	Methanimidamide, N,N′-diphenyl-, hydrochloride (1:1)	493.15	
20869-95-8	Ermanin	507.15	
2087-56-1	4-Thiazolidinone, 3-methyl-2-(methylimino)-, hydrochloride (1:1)	453.15	
20874-52-6	Saikosaponin D	488.15	
2088-07-5	2-Methyl-1-penten-3-ol		407.65
2088-35-9	1,1-Dichlorocyclopropane		348.7
2088-71-3	Testosterone, benzoate	473.15	
2088-87-1	1,2-Naphthalenedicarboxylic acid	449.15	
20882-75-1	Swertianin	516.15	
20883-16-3	2-Buten-1-ol, 3-phenyl-, 1-acetate		410.15
2089-32-9	1-(4-Ethylphenyl)ethanone oxime	354.15	
2089-33-0	p-Methylacetophenone oxime	359.15	
2089-36-3	1,3-Benzodioxole-5-carboxaldehyde oxime	359.15	
2089-87-4	1,6-Naphthalenedicarboxylic acid	547.65	
20893-01-0	2-[[[(4-Methylphenyl)sulfonyl]oxy]imino]propanedinitrile	388.15	
20893-30-5	2-Thiopheneacetonitrile	323.65	390.65
2090-14-4	Perhydrochrysene	388.15	626.15
2090-53-1	Mercury, chloro(2-hydroxyethyl)-	424.15	
2090-54-2	10H-Phenothiazine-10-ethanaminium, N-(2-hydroxyethyl)-N,N,α-trimethyl-, chloride (1:1)	506.15	
2090-62-2	Benzenemethanamine, N-dodecyl-, hydrochloride (1:1)	474.9	
20901-53-5	Methyl 2,3-dihydro-2-oxo-1H-imidazole-4-carboxylate	553.15	
2091-29-4	9-Hexadecenoic acid	273.65	
2091-46-5	Phosphonium, triphenyl-2-propyn-1-yl-, bromide (1:1)	438.65	
2091-61-4	1-Chloro-2-(4-nitrophenoxy)benzene	348.15	
20912-69-0	1-Chloro-4-[(4-methoxyphenyl)thio]benzene	333.65	
20913-25-1	Ethyl 2-methylcyclopropanecarboxylate	420.15	
20925-27-3	4-Amino-2-chlorobenzonitrile	391.15	
20927-53-1	6-Chloro-1-methyl-4-phenyl-2(1H)-quinazolinone	499.65	
20927-95-1	2-Nitrodibenzofuran	422.15	
20927-98-4	2-(4-Methylphenoxy)benzenamine	365.65	
20931-37-7	β-Mangostin	448.65	
20934-81-0	2-(p-Aminophenyl)benzoxazole	442.65	
20936-31-6	Copper salicylate	644.65	
20937-45-5	N-[1-(Phenylmethyl)cyclopentyl]formamide	344.15	
20938-74-3	N-Methylmercaptoacetamide	331.15	
20939-17-7	1,2,4-Thiadiazolidine-3,5-dithione	440.65	
2094-72-6	1-Adamantanecarbonyl chloride	323.4	
2094-98-6	1,1′-Azobis(cyclohexane-1-carbonitrile)	389.15	
2094-99-7	1-(1-Isocyanato-1-methylethyl)-3-(1-methylethenyl)benzene		542.65
20940-43-6	N′-(3-Bromophenyl)-N,N-dimethylurea	424.15	
20941-65-5	Tetrakis(diethyldithiocarbamato)tellurium	381.65	
209481-20-9	5-Chloro-N-[4-methoxy-3-(1-piperazinyl)phenyl]-3-methylbenzo[b]thiophene-2-sulfonamide	513.65	
2095-01-4	1-Methyl-3,5-diethyl-2,6-diaminobenzene	331.15	
2095-57-0	5-Ethyldihydro-5-(1-methylpropyl)-2-thioxo-4,6(1H,5H)-pyrimidinedione	442.15	
2095-58-1	Dihydro-5-(1-methylpropyl)-5-(2-propen-1-yl)-2-thioxo-4,6(1H,5H)-pyrimidinedione	415.65	
2095-62-7	7-Hydroxychlorpromazine	448.65	
20950-56-5	[1,1′-Biphenyl]-3,3′,5-triol	451.65	
20950-84-9	N-(2-Aminoethyl)carbamodithioic acid	453.15	
20955-11-7	Ferrate(3-), hexafluoro-, sodium (1:3), (OC-6-11)-	1224.15	
2096-83-5	Diphosphine, 1,1,2,2-tetraphenyl-, 1-oxide	429.65	
2097-16-7	1-Ethyl-2,8,9-trioxa-5-aza-1-silabicyclo[3.3.3]undecane	405.9	
2097-17-8	1-(1-Methylethyl)-2,8,9-trioxa-5-aza-1-silabicyclo[3.3.3]undecane	380.15	
2097-18-9	1-Ethenyl-2,8,9-trioxa-5-aza-1-silabicyclo[3.3.3]undecane	437.15	
2097-19-0	1-Phenyl-2,8,9-trioxa-5-aza-1-silabicyclo[3.3.3]undecane	480.65	
2097-20-3	3,7-Dimethyl-1-phenyl-2,8,9-trioxa-5-aza-1-silabicyclo[3.3.3]undecane	360.9	
20970-75-6	3-Methyl-2-pyridinecarbonitrile	358.65	
20971-06-6	1-Deoxy-1-nitro-D-galactitol	416.15	
20972-43-4	(1Z)-1,2-Diphenyldiazene 1-oxide	309.15	
20977-05-3	Escin, monosodium salt	524.15	
209783-80-2	Entinostat	432.65	
2098-65-9	3′H-Cyclopropa[1,2]pregna-1,4,6-triene-3,20-dione, 1,2-dihydro-17-hydroxy-, (1α,2α)-	504.15	
2098-66-0	Cyproterone	511.9	
20980-22-7	1-(2-Pyrimidinyl)piperazine	450.65	
20983-67-9	4-Chloro-N-(4-nitrophenyl)benzenamine	459.4	
20989-17-7	(+)-Phenylglycinol	345.15	
2099-26-5	Androstenediol 3,17-diacetate	438.65	
20991-71-3	Card-20(22)-enolide, 12-(acetyloxy)-3-[(O-2,6-dideoxy-β-D-ribo-hexopyranosyl-(1→4)-O-2,6-dideoxy-β-D-ribo-hexopyranosyl-(1→4)-2,6-dideoxy-β-D-ribo-hexopyranosyl)oxy]-14-hydroxy-, (3β,5β,12β)-	502.15	
20994-26-7	2,2′-[[1,1′-Biphenyl]-4,4′-diylbis(oxy)]bis[ethanol]	484.15	
2100-17-6	4-Pentenal		372.15
2100-25-6	3-Iodo-1,2,4,5-tetramethylbenzene	352.15	
2100-42-7	2-Chloro-1,4-dimethoxybenzene		398.15
2101-87-3	4-Methoxyphenyl azide	309.15	
2101-88-4	4-Bromophenyl azide	293.15	
21017-50-5	1H-Indole-1-propanamide	407.9	
21018-38-2	1-Methallyl-3-methyl-2-thiourea	336.65	
21019-23-8	Methyl (3α,14α,16α)-14,15-dihydroeburnamenine-14-carboxylate	432.65	
21019-30-7	Methyllycaconitine	401.15	
2102-59-2	(-)-cis-Carveol	297.65	
21020-24-6	3-Chloro-1-butyne		341.65
21020-26-8	3-Ethyl-1-pentyne		358.15
210223-97-5	Acetamide, 2-[(2,2-dimethoxyethyl)amino]-N-(2-phenylethyl)-, hydrochloride (1:1)	426.15	
21027-33-8	5-Amino-1,5-dideoxy-1-[3,4-dihydro-5-(hydroxymethyl)-2,4-dioxo-1(2H)-pyrimidinyl]-β-D-allofuranuronic acid	527.15	
2103-57-3	2,3,4-Trimethoxybenzaldehyde	303.15	
2103-88-0	2-Mercapto-4-phenylthiazole	441.15	
2103-99-3	4-(4-Chlorophenyl)-2-thiazolamine	436.65	
21035-44-9	N-Ethyl-2-butanamine		370.15
21035-54-1	2-Buten-1-amine		361.15
21035-59-6	N-Methyl-2-pyridinemethanamine	337.15	
21035-85-8	Thieno[1′,2′:1,2]thieno[3,4-d]imidazol-5-ium, octahydro-2-oxo-1,3-bis(phenylmethyl)-, bromide (1:1)	493.65	
21037-26-3	1-Deoxy-1-[4,5-dimethyl-2-(phenylazo)phenylamino]-D-ribitol	445.65	
2104-04-3	2-Amino-4-(4-methoxyphenyl)thiazole	477.65	
2104-09-8	2-Amino-4-(p-nitrophenyl)thiazole	558.65	
2104-19-0	Monomethyl azelate	295.65	465.65
2104-64-5	O-Ethyl O-(4-nitrophenyl) phenylphosphonothioate	309.15	
2104-96-3	Bromophos	326.65	
21040-59-5	(+)-Codamine	400.15	
2105-43-3	Formamide, N-[(4-amino-2-methyl-5-pyrimidinyl)methyl]-N-[4-hydroxy-1-methyl-2-[[(tetrahydro-2-furanyl)methyl]dithio]-1-buten-1-yl]-, hydrochloride (1:1)	433.15	
2105-61-5	1,2,4-Trifluoro-5-nitrobenzene	262.15	467.65
21050-13-5	Bis(triphenylphosphine)iminium chloride	545.15	
21050-95-3	1-Chlorobenzotriazole	378.65	
21059-42-7	Cholan-24-oic acid, 3-[(ethoxycarbonyl)oxy]-7,12-dioxo-, methyl ester, (3α,5β)-	410.65	
2106-49-2	1-Chloro-2-fluoro-3-nitrobenzene	278.15	
2106-50-5	2-Chloro-4-fluoro-1-nitrobenzene	310.4	511.65
21062-20-4	2,2′-Oxybis[acetyl chloride]	395.15	
21063-40-1	Methyl D-arabino-2-hexulosonate	429.15	
21064-50-6	10-Methyl-7H-benzo[c]carbazole	454.65	
2107-69-9	5,6-Dimethoxy-1-indanone	393.15	
2107-70-2	3-(3,4-Dimethoxyphenyl)propionic acid	371.65	
2107-76-8	5,7-Dihydroxy-4-methylcoumarin	556.15	
2107-77-9	7,8-Dihydroxy-4-methylcoumarin	511.15	
21071-28-3	N,N′-Dihexylthiourea	309.15	
21071-31-8	Phosphoric acid triethanolamine salt	379.65	
21078-83-1	5-Tetradecanol	301.65	
21078-87-5	5-Hexadecanol	309.15	
2108-05-6	(3E)-3-Hepten-1-ol		467.5
21080-92-2	3-Thiophenemalonic acid	412.65	
21081-74-3	1-Chloro-2-(methylsulfonyl)-4-nitrobenzene	445.15	
21083-47-6	5,5-Diphenyl-2-thiohydantoin	508.15	
21085-72-3	Acetobromo-α-D-glucuronic acid methyl ester	379.65	
21086-65-7	4,5-Dimethoxy-1,2-benzoquinone	501.15	
21087-33-2	rel-(2R,5R)-2,5-Dimethylcyclohexanone	451.15	448.05
21087-64-9	Metribuzin	399.35	
21087-98-9	Koenimbine	467.65	
210880-92-5	Clothianidin	446.15	
2109-12-8	2,4,6-Triiodo-3-methylphenol	395.15	
2109-23-1	2-Methyl-2-(1-methylethyl)-1,3-propanediol	337.65	
2109-45-7	2-[[(2-Amino-5-chlorophenyl)phenylmethylene]amino]ethanol	396.15	
2109-98-0	2,3-Dimethylbutanal	386.15	