CAS	name	Tm	Tb
166040-10-4	Octahydro-3,5,1,7-[1,2,3,4]butanetetraylnaphthalene-1,5-diamine	586.65	
166049-77-0	4-[(2,4-Difluorophenyl)methoxy]benzaldehyde	349.65	
16606-61-4	2,4-Dichlororesorcinol	357.65	
1661-29-6	Meturedepa	393.15	
16611-67-9	2,5-Dichlorobenzophenone	361.15	523.15
16611-84-0	6-Pentadecylsalicylic acid	362.15	
16617-02-0	Propanamide, N,N′-(iminodicarbonyl)bis-	410.65	
16618-67-0	1-Bromo-3-methoxy-5-nitrobenzene	461.15	
16619-14-0	Azaflavanone	422.15	
16619-61-7	Phenyl styryl sulfide	308.9	
1662-06-2	17α,20β-Dihydroxy-4-pregnen-3-one	477.9	
1662-21-1	N-(4,5-Difluoro-2-nitrophenyl)acetamide	379.15	
1662-23-3	5,6-Difluoro-1,2-dimethyl-1H-benzimidazole	445.15	
16625-21-1	Aspidospermidin-21-oic acid, 3,4-didehydro-19-hydroxy-16,17-dimethoxy-1-methyl-, γ-lactone	475.15	
16627-36-4	N,N,2-Trimethyl-1-pentanamine		407.15
16628-28-7	2-Pentyn-1-ol, 4-(dimethylamino)-4-methyl-1,1-diphenyl-	429.4	
16629-41-7	2,4-Dihydro-4-(2-methylphenyl)-5-(4-pyridinyl)-3H-1,2,4-triazole-3-thione	543.65	
16629-42-8	2,4-Dihydro-4-(3-methylphenyl)-5-(4-pyridinyl)-3H-1,2,4-triazole-3-thione	529.65	
166330-11-6	1,1′-(10,10-Dimethyl-10H-phenoxasilin-4,6-diyl)bis[1,1-diphenylphosphine]	518.15	
16634-90-5	5-Chloro-2-hydroxy-3-nitrobenzaldehyde	381.65	
16635-95-3	rel-(1R,2R)-1,2-Diphenyl-1,2-ethanediamine	365.15	
16639-82-0	10H-Phenothiazine-10-propanamine, 2-chloro-N,N-dimethyl-, (2Z)-2-butenedioate (1:1)	423.15	
1664-53-5	3-Aminobenzenepropanamide	346.15	
1664-61-5	2-Aminobenzenepropanamide	326.15	
16642-94-7	(2E)-3-(4-Cyanophenyl)-2-propenoic acid	520.15	
1665-47-0	3-Bromo-N-(phenylmethyl)propanamide	375.65	
16650-28-5	Tetrahydro-4-methyl-5-phenyl-2-furanol	326.4	
16650-53-6	6-Chloro-1-naphthalenecarboxylic acid	461.65	
16653-19-3	2-(Phenylmethoxy)-1H-isoindole-1,3(2H)-dione	419.15	
16653-52-4	Rockogenin	494.15	
16657-10-6	4-Bromoindan-1-ol	345.15	
166591-12-4	1,2-Dihydro-6,7-dimethoxy-3-nitronaphthalene	372.65	
1666-01-9	5-(1,1-Dimethylethyl)-2-hydroxy-3-methylbenzaldehyde	317.65	
1666-03-1	2-Hydroxy-4,5-dimethylbenzaldehyde	342.15	
1666-86-0	2,4,6-Triphenylpyrimidine	457.15	
16661-00-0	Daucene	361.65	
16665-30-8	4-Piperidinecarboxylic acid, 1-(2-hydroxypropyl)-	418.15	
16666-45-8	(2E)-4,4-Dimethyl-2-pentenoic acid	352.15	
16669-28-6	1,4-Didecyl (2E)-2-butenedioate	304.4	
166762-97-6	Phenol, 4-[(3E)-5-(4-methoxyphenoxy)-3-penten-1-ynyl]-	412.15	
16679-95-1	N-[(Phenylmethoxy)carbonyl]-L-tyrosine hydrazide	493.15	
1668-06-0	Pyridinium, 2-iodo-1-methyl-, iodide (1:1)	482.95	
1668-08-2	L-Galactono-1,4-lactone	407.15	
1668-13-9	Alanine p-nitroanilide	368.15	
1668-33-3	2-(1,3-Benzodioxol-5-yl)-3,7-dimethoxy-4H-1-benzopyran-4-one	413.65	
1668-85-5	(-)-Epigalanthamine	462.15	
1668-86-6	rel-(4aR,8aR)-4a,5,9,10,11,12-Hexahydro-3-methoxy-11-methyl-6H-benzofuro[3a,3,2-ef][2]benzazepin-6-one	471.65	
16681-67-7	4-Bromo-2-methyl-2H-1,2,3-triazole	295.15	434.65
16681-68-8	1H-1,2,3-Triazole-5-carboxaldehyde	414.65	
16681-69-9	1-Methyl-1H-1,2,3-triazole-4-carboxaldehyde	386.4	
16681-76-8	4-Methyl-4H-1,2,4-triazol-3-amine	495.15	
16681-79-1	5-Bromo-1-methyl-1H-tetrazole	346.15	
16681-82-6	5-Bromo-1-methyl-1H-1,2,3-triazole	314.65	
16683-27-5	Convallamarogenin	533.15	
16688-20-3	Benzoic acid, 2-[(1,2,3,9-tetrahydro-9-oxopyrrolo[2,1-b]quinazolin-3-yl)amino]-, ethyl ester	443.65	
16689-35-3	1,1-Dimethylethyl 2-(1-methylethyl)hydrazinecarboxylate	322.15	
16691-28-4	Carbamimidothioic acid, [(phenylamino)thioxomethyl]-, methyl ester	397.15	
16692-52-7	3,5,7,4′-Tetramethoxyflavone	388.15	
16694-18-1	4-Bromo-2-thiophenecarboxylic acid	386.65	
16694-22-7	2,4,5-Tribromo-3-thiophenecarboxylic acid	477.15	
16694-31-8	5-Oxooctadecanoic acid	354.65	
16695-22-0	4-Methyl-N,N-bis[2-[[(4-methylphenyl)sulfonyl]oxy]ethyl]benzenesulfonamide	371.15	
1670-49-1	3-Methoxyestra-1,3,5(10),9(11)-tetraen-17-one	411.15	
1670-89-9	1H-Indole-7-carboxamide	474.65	
16706-54-0	Phenylmethyl N-(aminoiminomethyl)carbamate	414.15	
16708-09-1	2-Methyl-2,4-thiazolidinedicarboxylic acid	435.15	
1671-09-6	5-Methoxy-2-(methylsulfonyl)pyrimidine	387.15	
1671-85-8	2-[3-(2-Pyridinyl)-1H-1,2,4-triazol-5-yl]pyridine	490.65	
1671-87-0	3,6-Bis(2-pyridyl)-1,2,4,5-tetrazine	495.15	
167102-62-7	1,1-Dimethylethyl (4R)-4-[(methoxymethylamino)carbonyl]-2,2-dimethyl-3-oxazolidinecarboxylate	340.65	
16711-66-3	Cholesteryl palmitoleate	323.15	
16714-79-7	2-Chloroheptanedioic acid	362.65	
16715-84-7	2,4,6-Tris[(2-methyl-2-propen-1-yl)oxy]-1,3,5-triazine	306.15	
1672-65-7	Δ3,5-Deoxytigogenin	408.15	
1672-91-9	Sulfachlorpyrazine	485.95	
16728-91-9	Propanenitrile, 3,3′-[(cyanomethyl)imino]bis-	316.15	
1673-29-6	2-Phenylindeno[1,2,3-de]phthalazin-3(2H)-one	494.65	
167316-28-1	N-[(1S,2S)-2-Amino-1,2-diphenylethyl]-1,1,1-trifluoromethanesulfonamide	425.15	
16732-65-3	6-Bromo-1H-indole-2-carboxylic acid	495.15	
16732-81-3	Ethyl 6-methyl-1H-indole-2-carboxylate	397.65	
16738-12-8	Methyl α-oxo-1-naphthaleneacetate	346.15	
1674-35-7	1,1′-Oxybis[2-chlorocyclohexane]	342.15	
1674-82-4	1,12-Dodecanediaminium, N1,N1,N1,N12,N12,N12-hexamethyl-, bromide (1:2)	463.65	
16740-73-1	1-(5-Bromo-2-methoxyphenyl)ethanone	312.15	438.15
167404-38-8	4-(2-Bromoethoxy)benzenesulfonyl chloride	338.15	
16742-60-2	2-[(4-Hydroxy-3-methoxyphenyl)methylene]hydrazinecarboxamide	492	
16744-81-3	4-Methoxy-2-pyridinecarboxaldehyde	302.15	
167484-18-6	Phenylmethyl 1,2-dihydrospiro[3H-indole-3,4′-piperidine]-1′-carboxylate	389.15	
1675-66-7	Adelmidrol	406.15	
1675-70-3	4,4′-(1-Methylethylidene)bis[benzonitrile]	413	
16750-67-7	4-Amino-2-bromophenol	438.15	
16754-74-8	Methyl 2-oxo-3-(triphenylphosphoranylidene)propanoate	477.65	
167568-52-7	(2S)-2,3-Dihydro-5-methoxy-2-(4-methoxyphenyl)-8,8-dimethyl-4H,8H-benzo[1,2-b:3,4-b′]dipyran-4-one	387.65	
16759-47-0	4-(4-Nitrophenyl)-4H-1,2,4-triazole	591.15	
1676-82-0	4-Amino-2-ethoxy-N-methylbenzamide	460.15	
16761-19-6	4-(Acetylamino)-3-nitrobenzenesulfonyl chloride	377.15	
16766-33-9	Benzenamine, 4,4′-dithiobis[2-fluoro-	358.15	
1677-30-1	N1,N3-Bis(3,4-dichlorophenyl)propanediamide	501.35	
1677-38-9	6,8-Dichloro-4-hydroxy-2(1H)-quinolinone	633.15	
1677-44-7	4-Hydroxy-6-methyl-2-quinolone	615.15	
1677-45-8	8-Ethyl-4-hydroxy-2(1H)-quinolinone	531.15	
1677-48-1	5,6-Dichloroisatin	547.15	
1677-49-2	2,4,7-Trichloroquinoline	372.65	
1677-50-5	2,4,6-Trichloroquinoline	393.15	
16773-51-6	2-Methyl-4-nitro-1-(2-oxiranylmethyl)-1H-imidazole	363.15	
1678-43-9	Benzoin tosylate	378.9	
1678-44-0	2-(Acetyloxy)-1,2-bis(4-methoxyphenyl)ethanone	366.65	
1678-50-8	Pyridine, 3,3′-ethylenebis[4-nitro-, 1,1′-dioxide	515.15	
1678-53-1	3-Methyl-4-nitropyridine	301.65	
16782-39-1	Hydrazine, tricyclo[3.3.1.13,7]dec-1-yl-, hydrochloride (1:1)	523.15	
16782-40-4	2-(Tricyclo[3.3.1.13,7]dec-1-ylamino)acetonitrile	324.15	
16782-41-5	N-Tricyclo[3.3.1.13,7]dec-1-ylglycine	573.15	
167837-51-6	2-Methyl-5-quinoxalinol	377.65	
167837-55-0	2-Methyl-8-quinazolinol	429.15	
16794-13-1	2-Methyl-2-propanesulfonic acid	386.15	
16797-05-0	Benzenemethanamine, α-(phenoxymethyl)-, hydrochloride (1:1)	430.65	
16803-94-4	4-Amino-N-(3-methylphenyl)benzenesulfonamide	408.15	
16804-55-0	γ-Glutamylaspartic acid	484.15	
16804-57-2	γ-Methyleneglutamic acid	469.15	
16805-16-6	5-(1,1-Dimethylethyl)-4-hydroxy-2-methylbenzaldehyde	441.65	
168050-39-3	Phenylmethyl N-[(4-aminophenyl)methyl]carbamate	446.15	
16806-91-0	1-(1,2-Dimethyl-1H-pyrrol-3-yl)ethanone	339.15	
16807-13-9	3-Iodocarbazole	466.15	
168154-47-0	1,3-Diethyl 2-(acetylamino)-2-[2-(3-methoxyphenyl)-2-oxoethyl]propanedioate	357.65	
16817-32-6	3,5-Dimethyl-2-benzofurancarboxylic acid	499.15	
16817-43-9	5-Bromo-2-chloroanisole	300.65	
1682-66-2	N-Ethyl-2,2,2-trifluoroacetamide	287.65	
16829-91-7	1-Octanaminium, N,N,N-trioctyl-, iodide (1:1)	394.65	
168293-15-0	3-Epidehydropachymic acid	550.15	
168297-85-6	(S)-4-Benzyl-5,5-dimethyloxazolidin-2-one	339.65	
168297-86-7	(S)-4-Isopropyl-5,5-dimethyl-2-oxazolidinone	359.15	
16832-24-9	1-(Phenylmethyl)-L-histidine	513.15	
16837-08-4	6-Amino-2,3-dihydro-1-methyl-2-thioxo-4(1H)-pyrimidinone	544.65	
16838-87-2	Zaluzanin C	368.65	
1684-29-3	5-keto-D-Fructose	448.65	
1684-54-4	(5aS,9aS)-4,5,5a,6,7,8,9,9a-Octahydro-6,6,9a-trimethylnaphtho[1,2-c]furan-1(3H)-one	403.15	
16844-71-6	Epifriedelanol	554.15	
16847-90-8	Phosphonium, (1,2-diethoxy-2-oxoethyl)triphenyl-, chloride (1:1)	401.15	
16849-82-4	1,1′-[Methylenebis(oxy)]bis[pentane]	227.15	494.75
1685-81-0	2,3-Dihydro-4,6-dimethyl-1H-inden-1-one	394.15	
1685-97-8	2,2-Dibromo-1H-indene-1,3(2H)-dione	449.15	
16851-72-2	N-Tosyl-2,5-dihydropyrrole	403.15	
16851-84-6	1-[(4-Bromophenyl)sulfonyl]-1H-pyrrole	404.65	
16853-10-4	Pyrrolizinium, 1,2,3,5,6,7-hexahydro-, perchlorate (1:1)	506.15	
16858-03-0	1-(5,6,7,8-Tetrahydro-2-methyl-3-quinolinyl)ethanone	328.15	
1686-24-4	(T-4)-Tris(2-methyl-2-propanolato)oxovanadium	321.15	
16860-43-8	4-Butyl-4-hydroxy-1,2-diphenyl-3,5-pyrazolidinedione	377.65	
168618-46-0	3-(2-Naphthalenyl)benzoic acid	478.8	
168618-47-1	2′-Methoxy[1,1′-biphenyl]-3-carboxylic acid	452.15	
168618-50-6	[1,1′-Biphenyl]-3-carboxylic acid, 2′-methoxy-, methyl ester	328.65	
168646-54-6	5,6-Diamino-1,10-phenanthroline	428.65	
16865-27-3	5-(5-Nitro-2-furyl)-1,3,4-thiadiazole-2-thiol	449.15	
16867-54-2	Ethyl 6,8-dimethyl-4-oxo-4H-pyrido[1,2-a]pyrimidine-3-carboxylate	419.65	
1687-52-1	6-Methyl-2-quinazolinamine	506.15	
16870-28-3	2-Hydroxy-4-iodobenzoic acid	503.15	
16870-43-2	L-Tyrosine, hydrochloride (1:1)	522.15	
16874-70-7	L-Glutaminyl-L-alanine	448.65	
16874-75-2	Histidylalanine	472.15	
16874-81-0	Histidylphenylalanine	529.65	
16874-97-8	2,5-Thiazolidinedione	383.15	
16877-79-5	1,4-Bis(ethoxycarbonyl)-2,5-dihydroxy-1,4-cyclohexadiene	398.65	
16879-40-6	2-Iodo-4,6-dimethylpyrimidine	401.65	
16880-11-8	5-Isoxazolecarboxylic acid, 3-methoxy-, methyl ester	351.65	
16881-33-7	N-[(Phenylmethoxy)carbonyl]-L-tyrosine 1,1-dimethylethyl ester	360.15	
168820-17-5	4-Bromo-3-methoxy-1-phenyl-1H-pyrazole	298.15	
168828-71-5	[3-Fluoro-4-(4-thiomorpholinyl)phenyl]carbamic acid phenylmethyl ester	402.15	
168828-81-7	[3-Fluoro-4-(4-morpholinyl)phenyl]carbamic acid phenylmethyl ester	396.25	
168828-84-0	(5R)-5-(Azidomethyl)-3-[3-fluoro-4-(4-morpholinyl)phenyl]-2-oxazolidinone	376.15	
16883-70-8	Pyridinium, 4-amino-1-(2-oxo-2-phenylethyl)-, bromide (1:1)	572.65	
16886-10-5	3-(Phenylmethyl)-1H-indole	384.15	
168902-75-8	1H-Inden-1-amine, 2,3-dihydro-4,5-dimethoxy-, hydrochloride (1:1)	482.65	
16894-70-5	Stibonium, tetraphenyl-, iodide (1:1)	473.15	
16899-02-8	7-Hydroxyhexadecanoic acid	346.85	
16899-18-6	(4R)-2-Amino-4,5-dihydro-4-thiazolecarboxylic acid	494.15	
1690-62-6	3-Hydroxy-9-methoxy-6H-benzofuro[3,2-c][1]benzopyran-6-one	611.65	
1690-63-7	3-Hydroxy-10-methoxy-6H-benzofuro[3,2-c][1]benzopyran-6-one	562.15	
16901-38-5	4H-Pyrazol-4-one, 3-methyl-5-phenyl-, 1,2-dioxide	437.65	
169051-76-7	1,2-Dimethyl-3-propylimidazolium bis(trifluoromethylsulfonyl)imide	284.44	
16908-48-8	2,2′,2′′,2′′′-[[4,8-Bis(diethylamino)pyrimido[5,4-d]pyrimidine-2,6-diyl]dinitrilo]tetrakis[ethanol]	438.65	
16910-32-0	(+)-Obtusifoliol	407.65	
169105-02-6	N-[(1R)-2,3-Dihydro-1H-inden-1-yl]acetamide	425.15	
16927-50-7	5-Nitro-2-phenylaminobenzoic acid	523.15	
16927-60-9	1,3-Bis(chloromethyl)-5-methoxy-2,4,6-trimethylbenzene	409.9	
16937-20-5	3-Chloro-N-(phenylmethyl)benzenesulfonamide	352.15	
16942-68-0	5-Methyl-4-(2-methylphenyl)-2-thiazolamine	397.15	
169447-70-5	1,1-Dimethylethyl (2S)-2-methyl-1-piperazinecarboxylate	308.15	
169447-84-1	(3S)-1,3-Bis(phenylmethyl)-2,5-piperazinedione	453.65	
16947-80-1	N-[(1,1-Dimethylethoxy)carbonyl]-S-methyl-L-cysteine	345.15	
1695-59-6	5-Acetyldihydro-1-methyl-2-thioxo-4,6(1H,5H)-pyrimidinedione	483.15	
16951-81-8	N-(2-Methyl-1-oxo-2-propen-1-yl)-L-phenylalanine	372.65	
16952-66-2	3-Pyridinecarboxylic acid, 4-amino-, ethyl ester	383.15	
16953-49-4	6-(Diethoxymethyl)-2,3-dihydro-2-thioxo-4(1H)-pyrimidinone	433.15	
16954-74-8	2-(Dicyanomethylene)-1,3-indandione	554.15	
16955-55-8	Salireposide	479.15	
169626-35-1	Fumiquinazoline F	408.15	
16964-56-0	(1S,2R,4′aS,5′S,7′S,9′aS)-6-(Acetyloxy)hexahydro-5′-hydroxy-3,3-dimethyl-8′-methylene-1′,9′-dioxospiro[cyclohexane-1,4′(3′H)-[1H-7,9a]methanocyclohepta[c]pyran]-2-carboxaldehyde	519.15	
169674-02-6	4-Chloro-5-fluoro-1H-indole	294.65	
16977-80-3	β-D-Glucopyranoside, 3-chloropropyl, 2,3,4,6-tetraacetate	347.15	
169773-43-7	2H-Pyran-2-one, 4,4′-[1,3-propanediylbis(oxy)]bis[6-methyl-	434.65	
169789-37-1	5-Methoxy-1H-indazole-3-carboxaldehyde	488.15	
1698-46-0	4-(Diphenylmethyl)-N-9H-fluoren-9-ylidene-1-piperazinamine	458.65	
1698-65-3	4-Chloro-5-hydroxy-2-phenyl-3(2H)-pyridazinone	537.15	
1698-96-0	6,7-Diethoxy-4-hydroxy-3-quinolinecarboxylic acid	542.15	
169814-51-1	1-[3-(4-Methoxyphenyl)-5-methyl-4-isoxazolyl]ethanone	330.15	
16985-03-8	7-(1,2-Dimethylheptyl)-2,2-dimethyl-4-(4-pyridinyl)-2H-1-benzopyran-5-ol	360.65	
1699-40-7	4-Methoxy-N-[2-[3-methoxy-4-(phenylmethoxy)phenyl]ethyl]-3-(phenylmethoxy)benzeneacetamide	408.65	
1700-31-8	3-Benzyloxybenzyl bromide	327.65	
17000-78-1	(7α)-7-Methylestr-4-ene-3,17-dione	475.65	
17001-21-7	9-Methyltetradecanoic acid	277.4	
17008-65-0	Bufarenogin	504.65	
1701-21-9	6-Methoxy-2-(trifluoromethyl)-4-quinolinol	549.15	
1701-25-3	4-Chloro-8-methyl-2-(trifluoromethyl)quinoline	345.15	
1701-26-4	4-Chloro-6-methyl-2-(trifluoromethyl)quinoline	340.15	
17012-25-8	5,6-Dihydro-6-hydroxydibenz[c,e][1,2]azaborine	442.65	
17012-31-6	3-Chloro-5,6,7,8-tetrahydro-1-methyl-4-isoquinolinecarbonitrile	371.65	
17014-39-0	2,7-Dibromo-10-methyl-9(10H)-acridinone	555.65	
170147-32-7	Ethyl 2,3-dihydro-5-hydroxy-1H-indole-1-carboxylate	399.65	
17015-43-9	Curcolone	412.4	
17018-82-5	2-Hydroxymethyl-8-hydroxyquinoline	395.1	
17019-01-1	(±)-Tetrahydroharmine	472.15	
17019-04-4	7-Methoxy-1-methyl-9-(phenylmethyl)-9H-pyrido[3,4-b]indole	411.65	
17019-92-0	11-Keto-β-boswellic acid	467.65	
1702-20-1	Benzamide, 4-nitro-N-(1,2,3,6-tetrahydro-1,5-dimethyl-4-pyridinyl)-, monohydrochloride	473.65	
1702-42-7	Tributylmethylphosphonium iodide	406.65	
17020-04-1	Bauerenyl acetate	555.65	
17020-22-3	Oleanolic aldehyde	443.15	
170230-88-3	3-Borono-4-methylbenzoic acid	435.15	
17024-15-6	9-Phenanthrenecarbonitrile, 10-methyl-	449.15	
17024-47-4	2-Bromo-1-methyl-5-nitro-1H-imidazole	383.65	
1703-09-9	2,6-Dimethoxy-3(2H)-pyridazinone	339.65	
1703-61-3	4-Oxo-1,2-cyclopentanedicarboxylic acid	462.15	
170355-38-1	3-Thiophenecarboxylic acid, 5-bromo-, ethyl ester		338.65
170368-40-8	5-Amino-2-hydroxy-N-methylbenzamide	420.15	
1704-28-5	N-Dodecyl-2,6-dimethylmorpholine	430.65	
17040-20-9	4-(Phenylamino)benzoic acid	429.15	
17040-70-9	rel-(3R,5S)-3,5-Dibromocyclopentene	318.15	
17042-24-9	2-Mercapto-3-pentanone		436.15
17042-32-9	β-D-Glucopyranoside, 2,4-dinitrophenyl, 2,3,4,6-tetraacetate	448.15	
17042-40-9	α-D-Mannopyranoside, 4-methoxyphenyl, 2,3,4,6-tetraacetate	375.15	
170449-18-0	6,7-Dimethoxy-4-[N-(3-chlorophenyl)amino]quinazoline hydrochloride	505.65	
170456-83-4	1-[(4-Methylphenyl)sulfonyl]-3-pyrrolidinol	367.15	
1705-84-6	2-Methyltriphenylene	376.25	
17055-09-3	Apiolealdehyde	375.15	
17056-94-9	1-(3-Methoxy-2-naphthalenyl)ethanone	321.15	
17056-96-1	4-Methyl-8-cinnolinol	450.9	
1706-82-7	3-Chloro-2,4,6-trinitrophenol	436.15	
17061-63-1	N-[(4-Methoxyphenyl)methyl]formamide	350.15	
17064-48-1	2-[4-(1,1-Dimethylethyl)phenyl]-5-phenyl-1,3,4-oxadiazole	371.65	
17064-76-5	4-Chloro-N-[(2-nitrophenyl)methylene]benzenamine	364.15	
17064-80-1	2-Methyl-N-[(2-nitrophenyl)methylene]benzenamine	353.15	
17066-70-5	Confertiflorin	418.15	
17072-39-8	4-Pentyl-1H-pyrazole	295.15	
17072-58-1	1,4-Dimethyl 2,2,3,3-tetramethylbutanedioate	303.65	
170737-46-9	6-Bromo-2-naphthalenecarboxaldehyde	390.15	
1708-27-6	2,3-Dihydro-3-methylfuran		342.9
1708-41-4	2-Furyl-1,3-dioxolane	232.15	371.65
17083-25-9	O-(1,1-Dimethylethyl)serine	475.65	
170850-75-6	1,2-Bis(1,1-dimethylethyl) (2S,4R)-4-hydroxy-1,2-pyrrolidinedicarboxylate	336.15	
17088-50-5	(-)-Acutumine	472.65	
1709-51-9	N,N-Diphenylbenzenesulfonamide	397.65	
1709-53-1	4-Amino-N-ethylbenzenesulfonamide	379.15	
1709-54-2	4-Amino-N-(phenylmethyl)benzenesulfonamide	380.15	
170917-89-2	4a-Methyl 2-(phenylmethyl) 7-chloroindeno[1,2-e][1,3,4]oxadiazine-2,4a(3H,5H)-dicarboxylate	396.65	
17092-41-0	(+)-2-Methyl-1-pentanol		416.15
17093-82-2	Caffeic acid 4-O-β-D-glucopyranoside	432.65	
17100-65-1	Methyl 2-bromo-4-methoxybenzoate	302.15	
17103-48-9	4-Amino-N-5-pyrimidinylbenzenesulfonamide	533.65	
17104-69-7	Benzo[f]quinoline, 4-oxide	405.15	
171049-41-5	tert-Butyl 7-amino-3,4-dihydroisoquinoline-2(1H)-carboxylate	333.15	
171058-18-7	1-Decyl-3-methylimidazolium chloride	311.17	
171058-21-2	1-Tetradecyl-3-methylimidazolium chloride	324.65	
17112-93-5	2-Methylnaphtho[1,2-b]furan-4,5-dione	437.4	
17119-74-3	5-Bromo-4-chloro-6-methyl-2-(methylthio)pyrimidine	345.65	
1712-79-4	Bis[4-(1,1-dimethylethyl)benzoyl] peroxide	417.9	
1712-87-4	m-Toluoyl peroxide	327.4	
17122-62-2	2-(Hydroxyimino)-N-(4-nitrophenyl)acetamide	478.15	
17122-79-1	Ethyl 4-[[2-(hydroxyimino)acetyl]amino]benzoate	373.15	
17124-82-2	Carbamimidothioic acid, 2-(dimethylamino)ethyl ester	454.65	
17126-76-0	4-[Bis(2-chloroethyl)amino]-2-methoxybenzaldehyde	369.65	
171268-81-8	2-Thiophenemethanamine, α-methyl-, hydrochloride (1:1)	414.15	
1713-02-6	4-Methoxy-β-methyl-δ-oxobenzenepentanoic acid	370.65	
1713-16-2	Ethanone, 1,1′-(1,3-phenylene)bis[2-chloro-	370.9	
1713-36-6	2-(Cyclohexylamino)-3-phenyl-1H-inden-1-one	392.65	
1713-64-0	2-Cyclohexylideneacetaldehyde 2-(2,4-dinitrophenyl)hydrazone	473.4	
17135-47-6	7-Chloro-1-(4-fluorophenyl)-1-heptanone	318.15	
17136-26-4	β-Alanyl-L-valine	528.15	
171364-79-7	2-(4-Methoxyphenyl)-4,4,5,5-tetramethyl-1,3,2-dioxaborolane	300.15	
171364-80-0	Methyl 4-(4,4,5,5-tetramethyl-1,3,2-dioxaborolan-2-yl)benzoate	352.9	
171364-82-2	4-(4,4,5,5-Tetramethyl-1,3,2-dioxaborolan-2-yl)benzonitrile	367.65	
17138-37-3	Isoquinoline, 1-[(2-bromo-4,5-dimethoxyphenyl)methyl]-3,4-dihydro-6-methoxy-7-(phenylmethoxy)-, hydrochloride (1:1)	490.65	
17140-69-1	2-Benzothiazolamine, 6-[2-(diethylamino)ethoxy]-N,N-dimethyl-, hydrochloride (1:1)	421.65	
171408-76-7	2-Bromo-9,9′-spirobi[9H-fluorene]	455.15	
17147-82-9	2-(2,2-Dimethylpropyl)benzothiazole	327.15	
17149-95-0	(1β,3β,5β,25S)-Spirostan-1,3,5-triol	541.65	
1715-86-2	7-Dehydrodesmosterol	375.4	
17153-21-8	3-Methyl-5-phenylisoxazole-4-carboxylic acid	322.65	
17159-83-0	4-[[[(4-Methylphenyl)sulfonyl]oxy]methyl]cyclohexanone	330.65	
171596-41-1	Methyl (1R,3R)-1-(1,3-benzodioxol-5-yl)-2,3,4,9-tetrahydro-1H-pyrido[3,4-b]indole-3-carboxylate	427.65	
171596-43-3	Methyl (1S,3S)-1-(1,3-benzodioxol-5-yl)-2,3,4,9-tetrahydro-1H-pyrido[3,4-b]indole-3-carboxylate	461.15	
171596-44-4	Methyl (1R,3S)-1-(1,3-benzodioxol-5-yl)-2,3,4,9-tetrahydro-1H-pyrido[3,4-b]indole-3-carboxylate	427.15	
171596-58-0	1H-Pyrido[3,4-b]indole-3-carboxylic acid, 1-(1,3-benzodioxol-5-yl)-2-(chloroacetyl)-2,3,4,9-tetrahydro-, methyl ester, (1R,3R)-rel-	489.65	
1716-07-0	Triglyceride OPO	292.15	
17175-11-0	Carbonic acid, 4-nitrophenyl phenyl ester	400.65	
1718-39-4	4-[(Aminothioxomethyl)amino]benzenesulfonamide	482.15	
1718-52-1	Pyrene-d10	421.65	
17180-88-0	1a,7b-Dihydronaphth[1,2-b]oxirene	317.15	
17184-21-3	Cauloside A	550.15	
17190-80-6	3-[5-[4-[(3-Methyl-2-buten-1-yl)oxy]phenyl]-2-oxazolyl]pyridine	388.15	
17191-44-5	1-[[(Phenylmethoxy)carbonyl]amino]cyclopentanecarboxylic acid	369.65	
17193-28-1	1-Aminocyclopentanecarboxamide	368.65	
17193-31-6	α-Aminobenzenepropanamide	412.15	
17199-43-8	5′-Deoxy-5′-fluorothymidine	478.15	
17200-30-5	6-Nitrobenzoxazole	425.65	
17201-87-5	3-(Chloromethyl)-1,1,1,3,5,5,5-heptamethyltrisiloxane	188.15	458.65
17202-57-2	Ethyl spiro[2.3]hexane-1-carboxylate		378.15
17206-62-1	2-Methylcyclopentanecarboxaldehyde		422.15
1721-25-1	1-(2,6-Dimethyl-3-pyridinyl)ethanone	307.65	381.15
1721-58-0	Methyl oleanonate	457.15	
1721-59-1	Diplopterol	518.65	
1721-81-9	Lup-20(29)-ene	436.15	
1721-91-1	2-Methyl-3-phenylquinoline		481.15
1721-95-5	1,4-Dimethylisoquinoline	498.15	