CAS	name	Tm	Tb
15981-91-6	2-Amino-5-methyl-4(3H)-pyrimidinone	551.15	
159848-77-8	Ethyl (αS,βR)-α,β-dihydroxy-4-methoxybenzenepropanoate	345.65	
159878-03-2	Phenylmethyl N-[(1R)-1-(2R)-2-oxiranyl-2-(phenylthio)ethyl]carbamate	331.65	
159878-05-4	(3S,4aS,8aS)-2-[(2R,3R)-3-Amino-2-hydroxy-4-(phenylthio)butyl]-N-(1,1-dimethylethyl)decahydro-3-isoquinolinecarboxamide	410.15	
1599-48-0	Nonanoic acid, 9,9-dimethoxy-, methyl ester		419.15
15991-14-7	2H-1-Benzopyran-4-acetic acid, 7-hydroxy-2-oxo-, hydrazide	519.15	
159910-03-9	(1S)-3,4-Dimethyl-3-cyclohexene-1-carboxylic acid	333.65	
15992-14-0	5-Methoxy-3-(2H-tetrazol-5-ylmethyl)-1H-indole	461.65	
159922-68-6	4-Methoxyphenyl 3,4-O-(1-methylethylidene)-2,6-bis-O-(phenylmethyl)-β-D-galactopyranoside	378.15	
15996-83-5	1-[4-(Trifluoromethyl)phenyl]ethanone oxime	378.15	
15997-62-3	4-(Acetyloxy)-2H-pyran-2,6(3H)-dione	366.65	
15998-99-9	Dihydro-6-thioxo-2,4(1H,3H)-pyrimidinedione	601.15	
159991-23-8	(3R)-3-[[(1,1-Dimethylethoxy)carbonyl]amino]butanoic acid	378.65	
1600-47-1	Diazene, 1,1′-(1,2-diphenyl-1,2-ethenediyl)bis[2-(triphenylmethyl)-	416.15	
16002-25-8	rel-(1R,4R,5R)-5-(Bromomethyl)bicyclo[2.2.1]hept-2-ene	340.65	
16004-77-6	Tricyclo[3.3.1.13,7]decane-1,3,5,7-tetramine	467.15	
16007-75-3	Quinoxaline, 2-ethyl-, 1,4-dioxide	424.15	
160088-54-0	5-Chloro-4-methoxy-2-nitrobenzenamine	406.15	
160096-59-3	Dimethoxycurcumin	403.65	
1601-19-0	1-Benzoyl-5-methoxy-2-methyl-1H-indole-3-acetic acid	445.65	
16013-16-4	3-(2-Furanyl)-1,2,4-oxadiazole	353.15	
16015-47-7	3,4-Dihydro-3-methyl-4-oxo-1-phthalazinecarboxylic acid	509.15	
16015-49-9	3,4-Dihydro-4-oxo-3-(phenylmethyl)-1-phthalazinecarboxylic acid	473.65	
16015-50-2	3,4-Dihydro-3-(3-methylphenyl)-4-oxo-1-phthalazinecarboxylic acid	476.15	
16019-33-3	(4,6-Dichloropyrimidin-5-yl)acetaldehyde	363.15	
16022-69-8	2,3,4,5,6-Pentachlorobenzenemethanol	467.15	
160231-69-6	(3S)-Tetrahydro-3-furanyl N-[(1S,2R)-2-hydroxy-3-[(2-methylpropyl)[(4-nitrophenyl)sulfonyl]amino]-1-(phenylmethyl)propyl]carbamate	434.65	
16024-30-9	5-Methoxy-2-methyl-3-nitrobenzenamine	407.15	
16024-67-2	2,4,6-Triiodo-3-[(1-oxo-3,6,9,12,15-pentaoxahexadec-1-yl)amino]benzoic acid	349.65	
16024-85-4	2,3-Dihydro-3-(2-hydroxyethyl)-2-thioxo-4(1H)-quinazolinone	511.15	
16024-88-7	2,3-Dihydro-5H-thiazolo[2,3-b]quinazolin-5-one	428.65	
16024-90-1	3,4-Dihydro-2H,6H-[1,3]thiazino[2,3-b]quinazolin-6-one	393.65	
160256-83-7	Methane, compd. with benzene (1:1)		537.15
160262-48-6	2(5H)-Furanone, 3-[2-hydroxy-7-[tetrahydro-5-(1,4,5,10-tetrahydroxynonadecyl)-2-furanyl]heptyl]-5-methyl-	389.65	
1603-03-8	15-Methylhexadecanoic acid	332.9	
1603-43-6	6-Methoxy-6-(4-methoxyphenyl)-6H-[1]benzopyrano[3,4-b]quinoxaline	439.65	
1603-47-0	8-Hydroxybergapten	494.9	
160320-10-5	1-(2,2-Dimethyl-1-oxopropyl)-3,4-dihydrobenz[cd]indol-5(1H)-one	440.65	
16034-49-4	3,5-Dimethyl-1H-pyrazole-1-acetic acid	455.15	
160377-57-1	3-(3-Bromophenyl)-5-methyl-1,2,4-oxadiazole	332.65	
160383-80-2	N-(5-Chloro-2-hydroxyphenyl)-N′-[3-(trifluoromethyl)phenyl]urea	450.65	
1604-26-8	3,7-Dimethyl-1-octyn-3-ol		460.65
16042-25-4	1H-Imidazole-2-carboxylic acid	436.65	
160446-14-0	3,4-Dihydro-6,7-dimethoxy-2(1H)-isoquinolineacetonitrile	384.15	
160446-35-5	1-(Triphenylmethyl)-1H-imidazole-4-propanoic acid	458.15	
16046-07-4	5-(2-Aminoethyl)-2,3-dimethoxyphenol	453.65	
16053-68-2	2-Methyl 7,12-diethenyl-3,8,13,17-tetramethyl-21H,23H-porphine-2,18-dipropanoate	500.65	
16054-73-2	(18α,19α)-Urs-20-en-3-one	445.4	
160565-78-6	1-(4-Iodophenyl)-1-hexanone	335.4	
16057-43-5	2-[2-(Octadecyloxy)ethoxy]ethanol	318.2	
160586-69-6	Phenylmethyl 3-[[[(4-methylphenyl)sulfonyl]oxy]methyl]-1-piperidinecarboxylate	334.15	
16059-75-9	4-Hydroxy-8-methoxy-2-naphthalenecarboxylic acid	532.65	
1606-31-1	2-Methyl-3-nitro-1-propene		314.65
16060-55-2	3-Hydroxybenzohydroxamic acid	345.15	
16060-65-4	4-Guanidinobenzoic acid	538.15	
16063-08-4	rel-(1R,3S,5R,7S)-4,8-Dioxatricyclo[5.1.0.03,5]octane	334.65	
16064-08-7	6-Iodo-4(3H)-quinazolinone	544.15	
16064-17-8	8-Hydroxy-4(3H)-quinazolinone	568.15	
16064-24-7	7-Methoxy-4(3H)-quinazolinone	530.65	
16066-93-6	1-(5-Amino-1H-indol-1-yl)ethanone	389.15	
1607-73-4	1-(3-Bromo-4,6-dimethoxy-2-hydroxyphenyl)-3-(4-methoxyphenyl)-2-propen-1-one	464.65	
16078-31-2	1-(2,3-Dihydro-1H-indol-1-yl)ethanethione	383.15	
16078-35-6	1-(1-Acetyl-2,3-dihydro-1H-indol-5-yl)ethanone	419.65	
16078-38-9	N-Benzoyl-1,2,3,4-tetrahydroquinoline	347.75	
1608-46-4	1,2-Diiodo-4-nitrobenzene	382.15	
1608-47-5	1,2-Diiodo-4-methylbenzene	358.15	
1608-48-6	1,2-Diiodo-3-methylbenzene	304.65	
1608-78-2	3-Oxoheptanedioic acid	345.65	
16082-27-2	7-Chloro-5-methylpyrazolo[1,5-a]pyrimidine	309.15	
160878-28-4	N-(2-Ethoxyphenyl)-4-methylbenzenesulfonamide	426.55	
160878-87-5	2,3-Dihydro-2-(4-methoxyphenyl)-1,3-dioxo-1H-isoindole-5-carboxylic acid	533.65	
16088-07-6	Phenylalaninol	401.15	428.15
160885-98-3	9H-Fluoren-9-ylmethyl N-[(1S)-1-(hydroxymethyl)-2-methylpropyl]carbamate	380.65	
16089-64-8	Methanamine, N-[(4-chlorophenyl)methylene]-, N-oxide	401.65	
16090-01-0	3,3′-Oxybis[2,2-dimethyl-1-propanol]	361.4	
160975-66-6	1H-Imidazole-1-acetyl chloride	353.15	
16098-21-8	3-Bromo-1-methyl-5-nitro-2(1H)-pyridinone	397.65	
16104-28-2	1,3,5,7-Tetrahydroxyadamantane	589.65	
16108-51-3	2,6-Dimethyl-4H-1-benzopyran-4-one	376.65	
16110-10-4	Acetaminophen glucuronide	469.65	
16112-96-2	Indanorex	371.65	
16114-25-3	3,4-Dichloro-1-(chloromethyl)-1H-pyrrole-2,5-dione	385.15	
16115-82-5	4-Nitro-1H-pyrazol-3-amine	515.15	
161172-51-6	2-[2-Propyl-3-[3-[2-ethyl-4-(4-fluorophenyl)-5-hydroxyphenoxy]propoxy]phenoxy]benzoic acid	342.15	
161192-22-9	4-Oxo-2-thioxo-3-thiazolidinepentanoic acid	391.15	
1612-71-1	Butane, 2-isocyanato-2-methyl-		387.65
161263-60-1	3-Benzoyl-5-iodo-1H-pyrimidine-2,4-dione	477.15	
1613-24-7	α-[2-(Diethylamino)ethyl]benzenepropanoic acid	376.15	
1613-31-6	Quinolinium, 1-ethyl-2-[(1-ethyl-2(1H)-quinolinylidene)methyl]-, bromide (1:1)	498.15	
1613-86-1	4-Nitrobenzamidoxime	453.15	
1613-88-3	p-Chlorobenzohydroxamic acid	450.15	
161327-59-9	3-Thiophenecarboxylic acid, 2-amino-5-formyl-, ethyl ester	491.15	
16135-42-5	1,4-Dihydro-6,7-dimethoxy-2-methyl-3(2H)-isoquinolinone	393.65	
161374-08-9	5-(Ethoxycarbonyl)-6-methyl-4-(4-nitrophenyl)-3,4-dihydropyrimidin-2(1H)-one	480.9	
161374-29-4	N-2-Butyn-1-yl-4-methyl-N-2-propen-1-ylbenzenesulfonamide	308.65	
1613810-12-0	(2E,7E)-2,7-Bis(2-thienylmethylene)cycloheptanone	418.15	
1614-22-8	2-[(6-Methyl-3-pyridazinyl)amino]ethanol	366.15	
1614-83-1	4,4a,5,6-Tetrahydro-7-hydroxy-2(3H)-naphthalenone	449.15	
1614-84-2	4,4a,5,6-Tetrahydro-7-methoxy-2(3H)-naphthalenone	370.15	
16141-44-9	4-[(3-Methoxyphenyl)amino]-4-oxobutanoic acid	391.15	
161491-32-3	1-(2,2-Diphenylacetyl)-4-piperidinone	408.65	
1615-03-8	4-Methyl-2-imidazoline		323.65
1615-42-5	1-Methyl-2-cyano-5-nitroimidazole	355.65	
1615-57-2	1-Methyl-5-nitro-1H-imidazole-2-carboxamide	488.65	
1615-91-4	Diploptene	424.15	
1615-94-7	Simiarenol	482.65	
1615-95-8	(8β,9α,10α,13β,14α,17α,18β)-9,13,17-Trimethyl-A′-neo-25,26,28-trinorgammacer-5-ene	464.15	
1615-99-2	(8α,13α,14β,17α,18β)-13,17-Dimethyl-A′-neo-26,28-dinorgammacer-9(11)-ene	443.65	
161513-47-9	1,1-Dimethylethyl N-[(2S)-2-oxiranylmethyl]carbamate	320.15	
161529-21-1	1,1-Dimethylethyl N-[(1S)-1-(iodomethyl)-2-methylpropyl]carbamate	343.65	
16154-61-3	1-Methyl-4-(3-methyl-4-nitrophenyl)piperazine	342.15	
16154-62-4	1-(2-Chloro-4-nitrophenyl)-4-methylpiperazine	379.15	
16154-72-6	3-Chloro-4-(4-methyl-1-piperazinyl)benzenamine	414.15	
1616-93-9	β-Amyrin acetate	513.65	
161622-06-6	3-Chloro-4-(1-methylethyl)benzoic acid	481.15	
16168-92-6	4-Acetyl-1H-pyrrole-2-carboxaldehyde	414.9	
1617-31-8	3-Methyl-3-butenoic acid	293.15	
1617-49-8	3,3′,4-Tri-O-methylellagic acid	563.15	
1617-53-4	Amentoflavone	520.65	
1617-69-2	Lup-20(29)-en-3-ol, 3-benzoate, (3β)-	501.15	
1617-70-5	Lupenone	443.15	
1617-72-7	Allobetulin	533.65	
161715-24-8	Tebipenem pivoxil	414.15	
161715-27-1	1-(4,5-Dihydro-2-thiazolyl)-3-azetidinol	388.65	
161730-09-2	(2R,5R)-2,3,4,5-Tetrahydro-7-hydroxy-α,α,5,8-tetramethyl-1-benzoxepin-2-methanol	433.65	
16176-77-5	2-Methyl-1-phenyl-1H-indole	331.4	
161796-11-8	1-Methyl 2-fluoro-1,4-benzenedicarboxylate	483.65	
161796-77-6	1H-Benzimidazole, 6-methoxy-2-[(R)-[(4-methoxy-3,5-dimethyl-2-pyridinyl)methyl]sulfinyl]-, sodium salt (1:1)	433.15	
161796-78-7	Esomeprazole sodium	429.15	
161797-99-5	Ethyl 2-(4-hydroxyphenyl)-4-methyl-5-thiazolecarboxylate	453.15	
1618-38-8	α-Amino-7H-pyrrolo[2,3-d]pyrimidine-5-propanoic acid	518.15	
1618-64-0	1-[3-(Trifluoromethyl)phenyl]-2H-3,1-benzoxazine-2,4(1H)-dione	445.9	
16184-79-5	3-(Acetyloxy)-2,2-dimethylpropanal		457.15
161851-25-8	2H-Indol-2-one, 3-amino-1,3-dihydro-1-methyl-, hydrochloride (1:1)	458.15	
16188-61-7	Talastine	380.65	
16189-10-9	(2E)-3-[2-(Acetyloxy)phenyl]-2-propenoic acid	428.15	
16189-35-8	Cyclopentylidenecyclopentane	272.65	
1619-16-5	Hydroxyvalerenic acid	445.15	
1619-29-0	(1R,4R,5S,8S)-8-(Hydroxymethyl)-1,7-dimethyl-4-(1-methylethyl)bicyclo[3.2.1]oct-6-ene-6-carboxaldehyde	371.15	
1619-35-8	1-(4-Piperidinyl)-1,2-ethanediol		400.65
1619-41-6	N1-(4-Phenyl-2-thiazolyl)-1,3-benzenediamine	434.15	
1619-58-5	Butanoic acid, 2-cyano-, ethyl ester	494.65	
1619-89-2	6-Oxotetradecanoic acid	345.65	
1619-96-1	N-[2,2,2-Trifluoro-1-(trifluoromethyl)ethylidene]methanamine		307.65
161904-61-6	2-(2-Naphthalenyloxy)butanoic acid	399.65	
16191-17-6	3,6-Dioxabicyclo[3.1.0]hexane-2,4-dione	337.15	
16194-28-8	1,3-Diphenyl-2(1H)-quinoxalinone	465.15	
161949-50-4	1-Chloro-4-iodo-2-methoxybenzene	312.65	
1620-03-7	2,2′-(1,4-Butanediyl)bis[pyridine]	317.15	
1620-55-9	1-Phenyl-2-(4-pyridinyl)ethanone	375.65	
1620-66-2	2,2′-Dithiobis[6-(1,1-dimethylethyl)-4-methylphenol]	404.15	
1620-70-8	2,2′-Methylenebis[6-methoxy-4-methylphenol]	399.15	
1620-72-0	2-Methyl-6-(trifluoromethyl)pyridine	285.65	426.15
1620-76-4	4-Methyl-2-pyridinecarbonitrile	335.65	
1620-78-6	3-Methyl-2-(trifluoromethyl)pyridine		447.15
16204-16-3	4-Methyl-N-(5,6,7,8-tetrahydro-5-oxo-2-naphthalenyl)benzenesulfonamide	492.15	
16205-46-2	Pyrazolo[1,5-a]pyridine-3-carboxylic acid	491.15	
16205-47-3	7-Methylpyrazolo[1,5-a]pyridine-3-carboxylic acid	484.15	
16208-21-2	2,2-Dihydroxy-1-(2-naphthalenyl)ethanone	358.15	
16208-23-4	2,2-Dichloro-1-(4-nitrophenyl)ethanone	300.45	
16209-01-1	3,5-Dimethyl-1-phenyl-1H-pyrazol-4-ol	412.15	
1621-56-3	7-Methoxyisoflavone	428.15	
1621-57-4	2,3-Dihydro-3-hydroxy-7-methoxy-2-phenyl-4H-1-benzopyran-4-one	419.65	
1621-61-0	3-(3,4-Dimethoxyphenyl)-7-methoxy-4H-1-benzopyran-4-one	434.15	
1621-84-7	Isoetin	630.65	
162150-92-7	3-Propyl-2,4-imidazolidinedione	360.15	
16218-30-7	2,7-Diiodo-9H-fluoren-9-one	471.65	
16218-31-8	2-Iodo-9,10-phenanthrenedione	506.65	
1622-87-3	1-Piperidineacetamide	384.15	
16220-59-0	N-(4-Iodophenyl)-2,4-dinitrobenzenamine	458.15	
1622292-61-8	Pallidol	472.65	
16224-36-5	4,4′-(1-Methylethylidene)bis[2,6-bis[(dimethylamino)methyl]phenol	358.15	
1623-09-2	6-(1,1-Dimethylethyl)-2,3-dihydro-1H-inden-5-ol	348.4	
16231-75-7	Atolide	426.65	
16232-42-1	1,2-Dihydro-2-oxo-4,6-diphenyl-3-pyridinecarbonitrile	592.15	
162356-74-3	4′-Methyl[1,1′-biphenyl]-2-carbothioamide	409.25	
162356-90-3	1,1-Dimethylethyl N-[(2-bromophenyl)methyl]carbamate	325.15	
162358-08-9	1,3-Diethyl 2-(acetylamino)-2-[2-(4-octylphenyl)ethyl]propanedioate	325.15	
162359-55-9	Fingolimod	395.65	
16240-04-3	3-(4-Methylphenyl)-2,4-thiazolidinedione	435.15	
162401-62-9	3-Cyclopropylmethoxy-4-difluoromethoxybenzoic acid	392.4	
162411-68-9	Stilbostemin D	384.15	
16243-72-4	2-Methyl-4-nitrothiazole	408.15	
16244-16-9	1,4-Dihydro-4-methylcyclopent[b]indol-3(2H)-one	408.75	
16251-46-0	Ephedroxane	364.65	
16252-53-2	3,4-Dihydro-2-(hydroxymethylene)-6-methoxy-1(2H)-naphthalenone	342.9	
162536-40-5	1,1-Dimethylethyl N-[(1S,2R)-3-chloro-2-hydroxy-1-(phenylmethyl)propyl]carbamate	356.65	
16255-50-8	1,4-Bis(chloromethyl)-2-nitrobenzene	307.85	
162607-23-0	B-(2,5-Dimethyl-3-thienyl)boronic acid	454.65	
162607-26-3	B-(3-Bromo-2-thienyl)boronic acid	475.15	
162648-54-6	1-[(Fmoc)amino]cyclohexanecarboxylic acid	444.65	
16265-08-0	5-Chloro-2,4-dimethyl-1H-imidazole	485.65	
16265-56-8	6-Deoxyjacareubin	485.15	
16266-97-0	5,6-Dimethoxy-2-(2-methoxyphenyl)-4H-1-benzopyran-4-one	397.65	
16269-27-5	2-Bromo-1(2H)-acenaphthylenone	395.15	
162748-21-2	1-[4-(Trifluoromethyl)phenyl]-2-imidazolidinone	443.15	
162758-35-2	5-(4-Chlorophenyl)-1-(2,4-dichlorophenyl)-4-methyl-1H-pyrazole-3-carboxylic acid	475.65	
1628-77-9	3-Nitro-10H-phenothiazine	450.15	
16284-60-9	Isovalerylglycine	361.65	
16285-72-6	4-Phenoxythieno[3,2-d]pyrimidine	335.15	
162854-32-2	Ethanol, 1-bromo-		441.65
1629-11-4	N-(2-Chlorophenyl)-2-fluorobenzamide	349.15	
16290-07-6	Kaempferol 7-O-glucoside	502.15	
16290-90-7	2-(Methylsulfonyl)-5-pyrimidinol	454.15	
16290-94-1	2,5-Dimethoxypyrimidine	343.4	
16292-95-8	3-Methoxy-4-nitrophenol	417.15	
162929-44-4	2-Methoxy-N-[(1R)-1-phenylethyl]acetamide	332.65	
16299-27-7	7-(Acetyloxy)-4-phenyl-2H-1-benzopyran-2-one	396.15	
1630-82-6	4-Bromo-3-hydroxyestra-1,3,5(10)-trien-17-one	537.65	
16302-64-0	3-Chloro-6-methyl-1,2-benzisoxazole	299.15	
16303-60-9	[2,2′-Bifuran]-5-carboxaldehyde	327.15	
16305-88-7	Norophthalmic acid	470.15	
163061-74-3	(1S,2S)-1-Amino-2-indanol	417.65	
1631-33-0	Triethylsilane-d		380.15
163119-30-0	2-[[[3-Methyl-1-oxido-4-(2,2,2-trifluoroethoxy)-2-pyridinyl]methyl]thio]-1H-benzimidazole	498.65	
16312-81-5	4-(1-Methylethyl)-1,2,4-triazolidine-3,5-dione	446.15	
163163-25-5	N-[(3S,4R)-6-Cyano-3,4-dihydro-3-hydroxy-2,2-dimethyl-2H-1-benzopyran-4-yl]-N-methylethanesulfonamide	465.15	
163229-48-9	1-(1,1-Dimethylethyl) 2-methyl 1H-indole-1,2-dicarboxylate	338.4	
16325-05-6	2,3-Dihydro-1-oxo-1H-benz[e]indene-3-carboxylic acid	461.65	
16326-98-0	rel-(1R,3R)-1,3-Cyclopentanediol	313.15	
16328-59-9	1-(4-Methoxyphenyl)-4(1H)-quinazolinone	465.15	
1633-14-3	2,5-Dibromo-1,4-benzoquinone	461.65	
1633-33-6	Benzoic acid, 4-bromo-, anhydride with 4-bromobenzoic acid	489.15	
16337-16-9	Tetracyclo[14.2.2.24,7.210,13]tetracosa-1(18),4,5,7(6),10,11,13(12),16,19-nonaene	401.65	
1634-46-4	4-(5-Methyl-2-furanyl)-2-thiazolamine	402.65	
163405-36-5	4-[1-(4-Hydroxyphenyl)-1-methylethyl]-3,5-cyclohexadiene-1,2-dione	372.65	
16343-08-1	B-Hexylboronic acid	362.15	
163462-16-6	Phenylmethyl N-[(1R)-1-(2S)-2-oxiranyl-2-(phenylthio)ethyl]carbamate	334.65	
16347-71-0	4-Oxo-3(4H)-quinazolineacetamide	503.15	
16347-96-9	4-Ethoxyquinazoline	316.15	
16347-97-0	4-Phenoxyquinazoline	351.65	
16348-04-2	1-(4-Methylphenyl)-2,4,6(1H,3H,5H)-pyrimidinetrione	516.65	
16348-06-4	1-(2-Chlorophenyl)-2,4,6(1H,3H,5H)-pyrimidinetrione	505.65	
16350-85-9	1-Butyl-2,5-piperazinedione	449.65	
16352-07-1	6-Amino-4-ethyl-1,3,5-triazin-2(1H)-one	538.15	
16352-21-9	1,3,2-Dioxaphosphorinane, 2-oxide	313.65	380.65
163521-12-8	Vilazodone	551.15	
16353-08-5	6-(Phenylmethyl)-4(3H)-pyrimidinone	453.15	
16353-10-9	3-Methyl-6-phenyl-4(3H)-pyrimidinone	474.15	
163563-02-8	[3,3′-Bipyridin]-2-amine	363.15	
163563-22-2	(αZ)-α-[(Dimethylamino)methylene]-4-fluorobenzeneacetaldehyde	353.15	
163596-75-6	4-Bromo-3-nitrobenzaldehyde	379.15	
16365-26-7	2-(3-Nitrophenoxy)ethanol	360.65	
1637-71-4	L-Cysteinesulfonic acid	443.65	
1637-75-8	3-Hydroxyhippuric acid	458.15	
163704-72-1	2,6-Bis(1-methylethyl)-4-nitrobenzenamine	398.65	
16375-94-3	N-[3-(Hydroxymethyl)phenyl]acetamide	384.15	
1638-05-7	β-apo-12′-Carotenal	361.65	
16381-41-2	Ethyl 7-bromo-3-methyl-1H-indole-2-carboxylate	355.15	
16381-42-3	Ethyl 5-methoxy-3-methyl-1H-indole-2-carboxylate	424.65	
16382-20-0	1H-Indole-2-carboxylic acid, 5-chloro-3-methyl-, ethyl ester	435.65	
16382-21-1	5-Methoxy-1-(phenylmethyl)-1H-indole	338.65	
16387-48-7	Propanimidamide, N-hydroxy-3-(methylamino)-, hydrochloride (1:1)	415.15	
16392-60-2	3α,5α-Tetrahydronorethisterone	391.15	
16392-77-1	2-[(4-Chlorophenyl)methyl]-1H-indene	340.15	
16394-71-1	(3β,16α)-3-Hydroxy-16-methylpregn-5-en-20-one	458.65	
163955-67-7	(2R)-1-(Acetyloxy)-2-hydroxy-4-heneicosanone	344.65	
164020-79-5	Benzeneethanamine, 2-bromo-4,5-dimethoxy-, hydrobromide (1:1)	476.15	
16405-99-5	4-(Bromomethyl)-2,1,3-benzothiadiazole	364.15	
16406-01-2	2,1,3-Benzothiadiazole-4-acetonitrile	464.15	
1641-63-0	Pentaphenylphosphole oxide	565.65	
16422-07-4	L-Alanyl-L-alanylglycine	514.65	
16428-75-4	L-Serine, hydrochloride (1:1)	402.65	
164298-23-1	Methanaminium, N-[(dimethylamino)fluoromethylene]-N-methyl-, hexafluorophosphate(1-) (1:1)	383.15	
1643-74-9	2-Chloro-6-fluoro-N-hydroxybenzenecarboximidamide	405.65	
1643-77-2	4-Fluoro-2-hydroxybenzamide	454.15	
1643-78-3	4-Fluoro-N,2-dihydroxybenzamide	465.65	
16432-90-9	4-[2-(3,4-Dihydroxyphenyl)diazenyl]benzenesulfonic acid	535.65	
1645-76-7	1,1,1,3,3,3-Hexafluoro-2-propanone oxime		343.15
1645-95-0	1-Chloro-2-(trifluoromethoxy)ethane		337.15
164526-14-1	1-(7-Amino-2,3-dihydro-1,4-benzodioxin-6-yl)-1-propanone	365.15	
164526-16-3	(7-Amino-2,3-dihydro-1,4-benzodioxin-6-yl)(2-chlorophenyl)methanone	434.15	
1646-28-2	2-Benzofurancarboxylic acid, 5-hydroxy-, methyl ester	441.65	
16462-27-4	2,4-Diaminopyrimidine-5-carbonitrile	591.15	
16466-97-0	Magnesium, bromo-1-propynyl-	326.65	
16488-59-8	2,4-Diiodo-3-methylthiophene	330.15	
16490-87-2	3,5-Dimethyl-1H-pyrazole-1-propanamide	399.9	
164916-63-6	3,4-Pyrrolidinedicarboxylic acid, 1-(phenylmethyl)-, cis-	484.65	
16494-41-0	3-Iodo-4-methylthiophene	248.4	
16495-04-8	1,2-Propanediol, 3-(phenylmethoxy)-, 1-(4-methylbenzenesulfonate), (2S)-	320.15	
16499-05-1	7,8-Dihydro-8,8-dimethyl-2H,6H-benzo[1,2-b:5,4-b′]dipyran-2,6-dione	450.15	
16499-57-3	7-Fluoroquinazolin-4(3H)-one	494.15	
16499-58-4	7-(Trifluoromethyl)-4(3H)-quinazolinone	499.15	
164991-65-5	(4aS,6aS,7S,7aS,9aS,11S,13R,15aR,16aS,16bR)-1,4a,5,7,7a,8,9,11,12,13,14,16,16a,16b-Tetradecahydro-2,7,7a,11,16a-pentamethyl-4H,10H-9a,13-epoxy-15a,7-(epoxyethano)azepino[1,2-a]naphtho[2,1-g]quinoline-4,6,18(6aH)-trione	547.65	
164991-68-8	5-(1,3-Dioxolo[4,5-f]isoquinolin-8-yl)-1,3-benzodioxole-4-methanol	499.65	
16502-01-5	Tetrahydro-β-carboline	477.65	
16504-24-8	1H-Azepine, 1,1′-azobis[hexahydro-	398.65	
16504-57-7	(3S)-3-Amino-4-hydroxybutanoic acid	497.15	
16506-82-4	Androst-16-ene	317.9	
1651-43-0	N1-Phenyl-4-(trifluoromethyl)-1,2-benzenediamine	321.65	
16511-39-0	4-Acetyl-2(1H)-quinolinone	467.65	
16520-78-8	8-Methoxycirsilineol	465.15	
16523-03-8	Ethane, 1,1′-oxybis[2-(methylsulfonyl)-	351.15	
16523-32-3	2,5-Bis(acetyloxy)-2,5-cyclohexadiene-1,4-dione	425.65	
16529-08-1	4-Ethyl-3a,4,7,7a-tetrahydro-1,3-isobenzofurandione	325.15	
1653-52-7	8-Azabicyclo[3.2.1]octan-3-one, 8-methyl-, compd. with 2,4,6-trinitrophenol (1:1)	490.65	
1653-68-5	2,4,6-Tris(4-nitrophenyl)pyridine	439.65	
16533-70-3	N-(3,5-Dinitrobenzoyl)glycine	455.15	
16534-24-0	Cinnamoylglycine	470.15	
16535-55-0	1-Hexadecanaminium, N-(2-ethoxy-2-oxoethyl)-N,N-dimethyl-, chloride (1:1)	346.15	
16536-30-4	Bis(2,4-dinitrophenyl) oxalate	463.65	
16544-67-5	6-(Trifluoromethyl)-4(3H)-quinazolinone	483.15	
165467-65-2	5-Methyl-5H-indolo[3,2-c]quinoline	405.65	
1655-39-6	3-Hexanone, 2-(2,4-dinitrophenyl)hydrazone	420.65	
1655-57-8	N-(2,4-Dinitrophenyl)-L-leucine	374.15	
16555-68-3	4-Ethyl-1,2,3-benzenetriol	378.65	
1656-83-3	(1R)-1-(Hydroxymethyl)-2-[(1-oxohexadecyl)oxy]ethyl (9Z)-9-octadecenoate	304.25	
16564-43-5	Sodium glycochenodeoxycholate	438.15	
16567-13-8	6-Bromo-8-chloroquinoline	392.9	
16568-56-2	Mesobilirubin IXα	590.65	
1657-34-7	3-Oxo-N-3-pyridinylbutanamide	407.65	
1658-97-5	4-Acetyl-N,N-diethylbenzenesulfonamide	356.65	
16582-60-8	4,6-Dibromo-2-benzothiazolamine	537.15	
16584-54-6	1-Hydroxy-10-methyl-9(10H)-acridinone	404.65	
16588-24-2	4-Bromo-1-chloro-2-nitrobenzene	343.95	
16588-25-3	4-Bromo-2-nitro-N-phenylbenzenamine	338.65	
16588-26-4	2-Bromo-1-chloro-4-nitrobenzene	334.15	
1659-77-4	Bicyclo[2.2.2]octane-1,4-diamine	336.15	
16597-50-5	N-[(Phenylmethoxy)carbonyl]-L-threonine phenylmethyl ester	336.65	
16600-24-1	7-Chloro-1-ethyl-1,4-dihydro-4-oxo-3-quinolinecarboxylic acid	547.15	
16603-23-9	10-(Phenylmethyl)-9(10H)-anthracenone	365.15	