CAS	name	Tm	Tb
10486-19-8	Tridecanal	287.15	405.15
10486-58-5	2(3H)-Benzoselenazolethione	430.15	
10486-61-0	3-Iodothiophene	259.75	
10487-11-3	1,1,1,7,7,7-Hexafluoro-2,6-dihydroxy-2,6-bis(trifluoromethyl)-4-heptanone	347.65	
10487-71-5	2-Butenoyl chloride		397.65
10488-36-5	Ethanamine, N-methyl-2-[(2-methylphenyl)phenylmethoxy]-, hydrochloride (1:1)	418.15	
1049-27-0	Benzenepropanamine, N-(1-methyl-2-phenylethyl)-γ-phenyl-, hydrochloride (1:1)	466.65	
10493-43-3	1,1,2-Trifluoro-2-(1,1,2,2,2-pentafluoroethoxy)ethene		281.15
10493-50-2	Neopentyl glycol bis[β-(3,5-di-tert-butyl-4-hydroxyphenyl)propionate]	354.65	
10493-98-8	2-Hydroxy-2-cyclopenten-1-one	325.65	
10494-75-4	Ethanethiol, 2-methoxy-		385.15
10495-37-1	4-Amino-N-phenyl-1,8-naphthalimide	576.15	
10496-15-8	Dihexyl disulfide	345.15	408.15
10496-51-2	2-(2-Furanylmethylene)cyclohexanone	319.65	
10496-75-0	2-Methoxy-5-nitrobenzonitrile	399.15	
10497-05-9	Tris(trimethylsilyl) phosphate	276.15	
105-03-3	1,9-Bis(2-ethylbutyl) nonanedioate	228.15	
105-05-5	1,4-Diethylbenzene	230.32	456.85
105-06-6	p-Divinylbenzene	304.15	325.15
105-07-7	4-Cyanobenzaldehyde	373.65	
105-08-8	1,4-Cyclohexanedimethanol	324.15	547.15
105-09-9	1,4-Benzenedimethanethiol	319.65	
105-11-3	Benzoquinone dioxime	516.15	
105-12-4	1,4-Dinitrosobenzene	452.15	
105-13-5	4-Methoxybenzyl alcohol	298.15	532.25
105-18-0	N1,N1,N4,N4-Tetraethyl-2-butyne-1,4-diamine	349.15	
105-20-4	Betazole		393.65
105-28-2	2-Heptadecylimidazoline	367.65	
105-29-3	3-Methyl-2-penten-4-yn-1-ol		338.15
105-30-6	2-Methyl-1-pentanol		421.15
105-31-7	1-Hexyn-3-ol	193.15	415.15
105-34-0	Methyl cyanoacetate	250.65	473.65
105-35-1	2-Chloro-N-ethylacetamide	402.15	
105-36-2	Ethyl bromoacetate	435.15	441.65
105-37-3	Ethyl propionate	199.25	372.35
105-38-4	Vinyl propionate	193.15	364.35
105-39-5	Ethyl chloroacetate	247.15	418.15
105-40-8	Carbamic acid, N-methyl-, ethyl ester		443.15
105-41-9	1,3-Dimethylamylamine		405.65
105-43-1	3-Methylpentanoic acid	231.55	
105-44-2	4-Methyl-2-pentanone oxime	336.15	448.15
105-45-3	Methyl acetoacetate	300.65	444.85
105-46-4	sec-Butyl acetate	174.25	385.15
105-48-6	Isopropyl chloroacetate		423.65
105-50-0	Diethyl 1,3-acetonedicarboxylate	398.15	523.15
105-53-3	Diethyl malonate	223.15	473.15
105-54-4	Ethyl butyrate	172.35	393.65
105-55-5	N,N′-Diethylthiourea	342.65	
105-56-6	Ethyl cyanoacetate	251.15	479.15
105-57-7	Diethyl acetal	173.15	250.15
105-58-8	Diethyl carbonate	230.15	399.15
105-59-9	N-Methyldiethanolamine	252.15	520.15
105-60-2	Caprolactam	342.45	543.15
105-61-3	(2Z)-4-[(Aminocarbonyl)amino]-4-oxo-2-butenoic acid	431.15	
105-64-6	Diisopropyl peroxydicarbonate	282.15	
105-65-7	Diisopropylxanthogen disulfide	328.15	
105-66-8	Propyl butyrate	177.95	416.15
105-67-9	2,4-Dimethylphenol	297.69	484.65
105-68-0	Isoamyl propionate		433.35
105-72-6	Glycol dibutyrate	193.15	513.15
105-74-8	Lauroyl peroxide	322.15	404.15
105-76-0	Dibutyl maleate	188.15	554.15
105-82-8	1,1′-[Ethylidenebis(oxy)]bis[propane]		367.85
105-83-9	Bis(3-aminopropyl)methylamine		505.65
105-87-3	Geranyl acetate		513.15
105-95-3	Ethylene brassylate	265.15	413.65
105-97-5	Didecyl adipate	300.55	
105-99-7	Dibutyl adipate	240.75	
1050-10-8	Carbamothioic acid, methyl-2-naphthalenyl-, O-2-naphthalenyl ester	487.65	
1050-28-8	L-Tyrosyl-L-tyrosine	573.15	
1050-48-2	Pyrrolidinium, 1,1-diethyl-3-[(2-hydroxy-2,2-diphenylacetyl)oxy]-, bromide (1:1)	476.65	
1050-51-7	3-(Hydroxymethyl)-1-phenyl-8-(phenylmethyl)-1,3,8-triazaspiro[4.5]decan-4-one	445.35	
1050-79-9	Moperone	391.9	
10500-57-9	5,6,7,8-Tetrahydroquinoline		495.15
10502-44-0	4-Methoxymandelic acid	381.15	
10504-35-5	D-Ascorbic acid	465.15	
10504-60-6	Sulfonium, methyldiphenyl-, tetrafluoroborate(1-) (1:1)	334.65	
10505-40-5	3-Ethyl-5-[2-(3-ethyl-2-thiazolidinylidene)ethylidene]-2-thioxo-4-thiazolidinone	434.15	
10505-45-0	3-Ethyl-5-(3-methyl-2-thiazolidinylidene)-2-thioxo-4-thiazolidinone	490.65	
10506-37-3	Carbonochloridothioic acid, O-2-naphthalenyl ester	349.65	
10508-00-6	3,3′-Thiobis[N-dodecylpropanamide]	413.15	
105084-66-0	Phosglycin	307.65	
10510-56-2	Piperazine, 1-(phenylmethyl)-, (2R,3R)-2,3-dihydroxybutanedioate (1:1)	425.15	
10510-77-7	Phenazine ethosulfate	463.15	
105112-76-3	3,3′-[[1,1′-Biphenyl]-4,4′-diylbis(oxy)]bis[benzenamine]	417.15	
10512-86-4	N-Formylalanine	420.65	
10512-93-3	N-[(Phenylmethoxy)carbonyl]-L-valine 4-nitrophenyl ester	334.15	
105128-93-6	N-[[[4-[(5-Bromo-2-pyrimidinyl)oxy]-3-chlorophenyl]amino]carbonyl]-2-nitrobenzamide	503.15	
10513-45-8	Isoxazolium, 2-(1,1-dimethylethyl)-5-methyl-, perchlorate (1:1)	393.15	
105149-00-6	(4aR,4bS,6aS,7R,9aS,9bR)-7-Acetyl-7-(acetyloxy)-11-chloro-4a,4b,5,6,6a,7,8,9,9a,9b-decahydro-4a,6a-dimethylcyclopenta[5,6]naphtho[1,2-c]pyran-2(4H)-one	527.15	
10516-71-9	3-(3-Methoxyphenyl)propionic acid	321.65	
10517-21-2	5-Chloro-1H-indole-2-carboxylic acid	425.15	
10517-44-9	1,3-Diaminopropane dihydrochloride	515.15	
10517-50-7	2-Amino-α-methylbenzenemethanol	322.15	
10519-06-9	1-Butoxy-4-methylbenzene	365.15	502.65
10519-33-2	3-Decen-2-one	289.65	
10519-87-6	Diethenyldimethylsilane	353.65	355.15
10519-96-7	Potassium trimethylsilanolate	409.15	
10520-81-7	2-Bromotetradecanoic acid	301.15	
10521-96-7	Styryl acetate	305.65	
10522-26-6	2-Methyl-1-undecanol		403.15
10523-68-9	2-Adamantanamine, hydrochloride	585.65	
10523-69-0	Tricyclo[3.3.1.13,7]decan-2-amine, N-methyl-, hydrochloride (1:1)	643.15	
10524-07-9	(2E)-5-Chloro-2-pentene		381.65
10524-82-0	Propanoic acid, 2-methyl-2-phenoxy-, 2-(4-morpholinyl)ethyl ester, hydrochloride (1:1)	427.65	417.15
10525-14-1	N-(2-Hydroxypropyl)tetradecanamide	344.15	
10525-22-1	25-Hydroxycholesteryl 3-acetate	415.15	
10525-37-8	Eicosylamine	330.95	
10526-07-5	1,3-Bis(3-aminophenoxy)benzene	381.15	
10527-11-4	3-(4-Hydroxyphenyl)-1,1,3-trimethyl-5-indanol	467.65	
10527-16-9	10-Chloro-9-anthracenecarboxaldehyde	489.15	
10530-10-6	Benzeneacetic acid, α-hydroxy-α-phenyl-, compd. with N,N-diethyl-3-phenyl-1,2,4-oxadiazole-5-ethanamine (1:1)	386.15	
10531-13-2	Cyanomethyl benzenesulfonate	305.65	
10531-78-9	5-Methylbenzoxazole	316.15	
105318-28-3	(2S,3S)-2-[(1R)-2-[(4-Chlorophenyl)thio]-1-methyl-2-oxoethyl]-3-[(1R)-1-hydroxyethyl]-4-oxo-1-azetidineacetic acid	355.15	
10534-13-1	1,4-Cyclohexanedicarbonitrile	414.15	
10534-59-5	Tetrabutylammonium acetate	387.65	
10534-89-1	Hexaamminecobalt(3+) trichloride	559.15	
105365-76-2	4-[(6,7-Dihydro-7-hydroxy-5H-cyclopentapyrimidin-4-yl)amino]benzonitrile	534.15	
10537-47-0	Tyrphostin 9	415.15	
10537-86-7	4-Hydroxy-3,5-bis(1-methylethyl)benzaldehyde	392.65	
10538-33-7	3,7-Bis(1,1,3,3-tetramethylbutyl)-10H-phenothiazine	435.65	
10538-49-5	3-(2,5-Dimethoxyphenyl)propionic acid	338.65	
10538-51-9	3-(2,5-Dimethoxyphenyl)-2-propenoic acid	420.15	
10538-58-6	Methyl (5β,12α)-12-hydroxy-3-oxocholan-24-oate	418.15	
10539-19-2	Moxaverine	351.65	
1054-89-3	8-(4-Oxo-4-phenylbutyl)-1-phenyl-1,3,8-triazaspiro[4.5]decan-4-one	448.85	
10540-29-1	Tamoxifen	370.15	
10541-29-4	Benzenamine, N,2-dimethyl-, hydrochloride (1:1)	485.65	
10541-56-7	p-Octylacetophenone	291.15	459.15
10541-83-0	4-(Methylamino)benzoic acid	433.15	
10542-87-7	4-(2-Methoxyphenyl)-3-buten-2-one	322.15	
10543-12-1	4-(Acetyloxy)-3-methoxybenzoic acid	422.15	
10543-57-4	Tetraacetylethylenediamine	448.15	
10543-60-9	Tetraacetylglycoluril	509.15	
10543-95-0	2-Propanone, 1,1,1,3,3,3-hexafluoro-, hydrate (1:1)	426.15	
10544-63-5	Ethyl crotonate		409.65
10544-72-6	Nitrogen oxide (N2O4)	263.85	294.3
10544-73-7	Nitrogen trioxide		315.9
10545-99-0	Sulfur dichloride	195.15	332.4
10546-24-4	3-Methyl-2-naphthalenamine	408.15	
10546-70-0	N-Propylbenzamide	357.65	
10547-30-5	N-(2,4-Dinitrophenyl)serine	473.15	
10547-40-7	N1,N4-Bis(7-chloro-4-quinolinyl)-α1,α4-dimethyl-1,4-piperazinediethanamine	543.65	
10547-60-1	4-Chloro-4′-methoxybenzophenone	397.65	
10549-22-1	4,5,9,10-Tetrahydro-2-nitropyrene	382.65	
1055-55-6	1-Naphthalenecarboximidamide, N,N-dibutyl-4-(hexyloxy)-, hydrochloride (1:1)	489.4	
10550-58-0	(2R)-3-(Hexadecyloxy)-1,2-propanediol	336.65	
10551-21-0	Pyridinium, 2-methyl-1-(2-phenylethyl)-, bromide (1:1)	471.15	
10551-32-3	4′-Methyl[1,1′-biphenyl]-2,5-diol	396.15	
10551-36-7	2,5-Dioctyl-1,4-benzenediol	355.65	
105512-06-9	Clodinafop-propargyl	332.65	
10552-74-6	Nitrothal-isopropyl	338.15	
105522-58-5	8-(Diethylamino)-3,7-dihydro-3-methyl-7-(2-phenoxyethyl)-1H-purine-2,6-dione	434.15	
10555-76-7	Sodium metaborate tetrahydrate	328.15	
105560-93-8	Methyl (2R,3S)-3-(4-methoxyphenyl)-2-oxiranecarboxylate	360.65	
10557-71-8	1-Chloro-4-(trimethylsilyl)benzene		479.65
10557-82-1	3,4,5-Trimethylisoxazole	276.15	
10560-13-1	1,3-Diethyl 5-nitro-1,3-benzenedicarboxylate	358.65	
105615-58-5	(7R,8R,10S)-10-[(3-Amino-2,3,6-trideoxy-α-L-lyxo-hexopyranosyl)oxy]-8-ethyl-7,8,9,10-tetrahydro-1,6,7,8,11-pentahydroxy-5,12-naphthacenedione	456.65	
105628-07-7	Fasudil hydrochloride	493.15	
10563-70-9	Melitracen hydrochloride	519.65	
105635-69-6	Desferrithiocin	427.15	
105650-23-5	2-Amino-1-methyl-6-phenylimidazo[4,5-b]pyridine	596.15	
105661-40-3	L-Azidoalanine	447.65	
1057-07-4	Dihydrotestosterone benzoate	428.15	
10570-67-9	4-Iodo-2,6-dimethylphenol	373.15	
10571-59-2	Nicoclonate	334.15	
10573-17-8	(3α,5α)-3-Hydroxy-6-oxocholan-24-oic acid	462.65	
105735-71-5	3,7-Dinitrofluoranthene	476.65	
10574-66-0	3-Ethyl-2-thioxo-4-oxazolidinone	313.4	
10574-69-3	3-Benzylrhodanine	356.15	
10574-70-6	3-(4-Bromophenyl)-2-thioxo-4-thiazolidinone	437.65	
10575-90-3	N-Cyclopropyl-N-nitrosourea	365.15	
10576-12-2	Ethyl N-hydroxyethanimidate	298.65	
10577-96-5	2-Ethenyl-4,5-dihydro-1H-imidazole	322.15	
105779-78-0	Pyrimidifen	343.15	
10578-34-4	Stearyl benzoate	316.65	
105786-40-1	rel-(1R,2R,3S,4S)-3-Aminobicyclo[2.2.1]hept-5-ene-2-carboxamide	497.15	
10580-52-6	Vanadium dichloride	1623.15	
10580-80-0	2,2′,4,4′,6,6′-Hexanitrodiphenyl sulfone	613.15	
105816-04-4	Nateglinide	413.15	
105826-92-4	Tropisetron hydrochloride	557.15	
105827-70-1	2-Chloro-5-[[2-(nitromethylene)-3-thiazolidinyl]methyl]pyridine	457.65	
105827-91-6	2-Chloro-5-(chloromethyl)thiazole	304.15	
105828-97-5	2-Chloro-5-[[2-(nitromethylene)-1-imidazolidinyl]methyl]thiazole	464.65	
10588-01-9	Sodium dichromate	629.85	
10588-10-0	Isobutyl valerate		452.15
10589-94-3	2,18-Dimethyl 3,7,12,17-tetramethyl-21H,23H-porphine-2,18-dipropanoate	497.65	
1059-14-9	Taraxasterol	494.65	
1059-21-8	(3β,5β,16β)-3-(Acetyloxy)-14,16-dihydroxycard-20(22)-enolide	449.15	
1059-86-5	7-Dehydrocholesteryl acetate	403.15	
10591-84-1	Thioperoxydicarbonic diamide ([(H2N)C(S)]2S2), N,N′-dimethyl-N,N′-diphenyl-	442.15	
10591-85-2	Tetrabenzylthiuram disulfide	410.15	
10593-78-9	5,6,7,8-Tetrahydropteridine	419.65	
10593-85-8	(±)-Homocysteine thiolactone	487.15	
105942-08-3	4-Bromo-2-fluorobenzonitrile	345.15	
10595-06-9	Phenoxyethyl methacrylate		541.15
10595-49-0	1-Propanaminium, N,N,N-trimethyl-3-[(1-oxododecyl)amino]-, methyl sulfate (1:1)	378.65	
10595-51-4	N-Methyl-4-nitrosobenzenamine	387.65	
105956-97-6	Clinafloxacin	528.65	
10596-16-4	P,P,P′,P′-Tetrakis(1-methylethyl) P,P′-ethylidenebis[phosphonate]	434.15	
10596-23-3	Clodronate	523.15	
10597-52-1	4-Nitrobenzimidazole	511.65	
10599-90-3	Monochloramine	207.15	
106-02-5	Pentadecalactone	305.15	449.15
106-07-0	2-[2-[2-(2-Hydroxyethoxy)ethoxy]ethoxy]ethyl octadecanoate	313.15	601.15
106-14-9	12-Hydroxystearic acid	355.15	
106-15-0	12-Hydroxy-N-(2-hydroxyethyl)octadecanamide	380.4	
106-16-1	(9Z,12R)-12-Hydroxy-N-(2-hydroxyethyl)-9-octadecenamide	331.65	
106-19-4	Dipropyl adipate	257.45	
106-20-7	Bis(2-ethylhexyl)amine		399.15
106-22-9	Citronellol		497.65
106-24-1	Geraniol		503.15
106-25-2	Nerol		498.15
106-27-4	Isoamyl butyrate	199.95	452.15
106-28-5	trans-Farnesol	335.15	
106-30-9	Ethyl heptanoate	207.05	460.15
106-31-0	Butyric anhydride	198.15	473.55
106-32-1	Ethyl octanoate	230.05	481.65
106-33-2	Ethyl dodecanoate	263.15	544.15
106-34-3	Quinhydrone	444.15	
106-35-4	3-Heptanone	234.15	420.15
106-36-5	Propyl propionate	197.25	395.65
106-37-6	1,4-Dibromobenzene	360.45	493.55
106-38-7	4-Bromotoluene	301.65	457.65
106-39-8	1-Bromo-4-chlorobenzene	341.15	469.15
106-40-1	4-Bromoaniline	339.4	
106-41-2	4-Bromophenol	339.55	511.15
106-42-3	p-Xylene	286.35	411.5
106-43-4	4-Chlorotoluene	280.65	435.55
106-44-5	p-Cresol	308.65	474.95
106-45-6	4-Methylbenzenethiol	316.65	468.15
106-46-7	1,4-Dichlorobenzene	325.85	447.15
106-47-8	4-Chloroaniline	345.65	505.15
106-48-9	4-Chlorophenol	315.85	493.15
106-49-0	4-Methylaniline	317.65	473.55
106-50-3	p-Phenylenediamine	419.15	540.15
106-51-4	Quinone	388.85	453.15
106-52-5	4-Hydroxy-1-methylpiperidine	302.15	473.15
106-53-6	4-Bromothiophenol	346.15	503.65
106-54-7	4-Chlorobenzenethiol	334.15	479.15
106-55-8	2,5-Dimethylpiperazine	389.15	437.15
106-56-9	2,5-Dimethylmorpholine		418.15
106-57-0	2,5-Piperazinedione	585.15	
106-58-1	1,4-Dimethylpiperazine	441.65	404.15
106-59-2	1,4-Piperazinediamine	511.15	
106-60-5	5-Aminolevulinic acid	391.65	
106-63-8	Isobutyl acrylate	212.15	405.15
106-65-0	Dimethyl succinate	292.65	468.45
106-68-3	3-Octanone		440.65
106-69-4	1,2,6-Hexanetriol		443.15
106-70-7	Methyl hexanoate	202.15	422.65
106-73-0	Methyl heptanoate	217.15	447.15
106-74-1	2-Ethoxyethyl acrylate	226.15	447.15
106-79-6	Dimethyl sebacate	311.15	
106-84-3	Octyl epoxystearate	259.15	
106-86-5	4-Vinylcyclohexene oxide		442.15
106-87-6	Vinylcyclohexene diepoxide		500.15
106-88-7	1,2-Epoxybutane	123.15	336.45
106-89-8	Epichlorohydrin	247.55	391.05
106-91-2	Glycidyl methacrylate		462.15
106-92-3	Allyl glycidyl ether	173.15	427.05
106-93-4	1,2-Dibromoethane	283.12	404.65
106-94-5	1-Bromopropane	163.15	344.15
106-95-6	Allyl bromide	154.15	344.45
106-96-7	Propargyl bromide	380.65	362.15
106-97-8	Butane	134.95	272.65
106-98-9	1-Butene	88.15	266.68
106-99-0	1,3-Butadiene	164.184	268.65
10600-62-1	2-Naphthalenecarboxylic acid, 4,4′-methylenebis[3-hydroxy-, compd. with 2-chloro-N,N-dimethyl-10H-phenothiazine-10-propanamine (1:2)	412.15	
106009-20-5	[1,4,7,10,13,16]Hexaoxacyclooctadecino[2,3-f:12,11-f′]bisbenzothiazole-2,14-diamine, 6,7,9,10,18,19,21,22-octahydro-	442.65	
10601-19-1	5-Methoxyindole-3-carboxaldehyde	451.15	
10601-80-6	Propanoic acid, 3,3-diethoxy-, ethyl ester	474.15	
106017-08-7	7H-Pyrido[1,2,3-de]-1,4-benzothiazine-6-carboxylic acid, 9-fluoro-2,3-dihydro-10-(4-methyl-1-piperazinyl)-7-oxo-, hydrochloride (1:1)	596.15	
10602-34-3	1,1-Diethoxy-2-butene		420.65
10603-63-1	Octanoic acid, tributylstannyl ester	328.65	
10603-92-6	Ethenaminium, N,N,N-trimethyl-, bromide (1:1)	465.65	
10604-22-5	3-Phenylcinnoline	392.65	
10604-60-1	(1-Iodoethyl)benzene	338.65	
10605-03-5	Dibenzo[a,g]quinolizinium, 5,6-dihydro-2,3,9,10-tetramethoxy-13-methyl-, chloride (1:1)	465.15	
10605-21-7	Carbendazim	573.15	
10605-40-0	Chloro(3-chloropropyl)dimethylsilane		452.15
1061-54-7	Diosgenin acetate	470.15	
106133-20-4	Tamsulosin	502.15	
1062-64-2	Pregna-1,4-diene-3,20-dione, 9-fluoro-11-hydroxy-17,21-[(1-methoxypentylidene)bis(oxy)]-16-methyl-, (11β,16α)-	429.65	
1062-96-0	Cholesteryl caproate	371.65	
106261-49-8	4-[(4-Methyl-1-piperazinyl)methyl]benzoic acid dihydrochloride	583.15	
106266-06-2	Risperidone	443.15	
1063-55-4	1-Butanone, 1-[10-[3-(4-methyl-1-piperazinyl)propyl]-10H-phenothiazin-2-yl]-, (2Z)-2-butenedioate (1:2)	455.65	
1063-77-0	Nomilin	551.65	
106391-86-0	1,1-Dimethylethyl N-[(1R)-2-hydroxy-1-methylethyl]carbamate	333.15	
106392-12-5	Ethylene oxide-propylene oxide block copolymer	330.15	
1064-06-8	Quercetin pentaacetate	466.15	
1064-10-4	1,1,1,2,2,2-Hexaphenyldistannane	505.65	
106410-46-2	4-[Hydroxy[5-[[(phenylmethoxy)carbonyl]amino]pentyl]amino]-4-oxobutanoic acid	388.65	
106461-41-0	2,4-Dihydro-4-[4-[4-(4-hydroxyphenyl)-1-piperazinyl]phenyl]-2-(1-methylpropyl)-3H-1,2,4-triazol-3-one	350.15	
106463-17-6	Tamsulosin hydrochloride	502.15	
106486-76-4	Azinomycin B	480.15	
1065-80-1	Hexabenzo[a,d,g,j,m,p]coronene	789.15	
1065-95-8	1,1,2,2,3,3,4,4-Octaphenylcyclotetrasilane	595.15	
106538-38-9	Octahydro-3,3′-bifuran		365.15
106556-36-9	2-(2-Hydroxy-4-methoxyphenyl)-4,6-diphenyl-1,3,5-triazine	476.15	
106565-43-9	Ethylene-propylene block copolymer	427.15	
106566-58-9	Tellurate(1-), trichloro[1,2-ethanediolato(2-)-κO1,κO2]-, ammonium (1:1), (SP-5-22)-	506.15	
1066-33-7	Ammonium bicarbonate	380.15	
1066-35-9	Chlorodimethylsilane	162.15	309.15
1066-37-1	Germane, bromotrimethyl-	248.15	386.65
1066-40-6	Trimethylsilanol	268.65	372.65
1066-42-8	Dimethylsilanediol	370.15	
1066-44-0	Bromotrimethylstannane	299.65	437.15
1066-45-1	Trimethyltin chloride	310.65	428.15
1066-51-9	(Aminomethyl)phosphonic acid	583.15	
1066-54-2	(Trimethylsilyl)acetylene		325.15
1066-57-5	Ethyltin trichloride	263.15	470.15
1066-97-3	Phosphorodithioic acid, O,O-dimethyl ester, ammonium salt (1:1)	420.15	
106649-95-0	Propanimidamide, N-(aminosulfonyl)-3-chloro-, hydrochloride (1:1)	418.15	
106685-40-9	Adapalene	594.15	
1067-08-9	3-Methyl-3-ethylpentane	182.25	391.35
1067-10-3	Bromotriethylgermane	241.15	463.65
1067-12-5	Tris(hydroxymethyl)phosphine oxide	330.15	
1067-14-7	Triethyllead chloride	445.15	
1067-20-5	3,3-Diethylpentane	240.05	419.45
1067-25-0	Propyltrimethoxysilane		415.15
1067-33-0	Dibutyltin diacetate	283.15	
1067-42-1	Tetrabutylgermane		547.15
1067-52-3	Tributylmethoxystannane	369.15	
1067-53-4	Vinyltris(2-methoxyethoxy)silane		558.15
1067-55-6	Dibutyltin dimethoxide		400.15
1067-57-8	Butyltrimethoxysilane		437.65
1067-62-5	1,4-Butanediaminium, N1,N1,N1,N4,N4,N4-hexaethyl-, bromide (1:2)	552.15	
106795-66-8	1-(2-Fluorophenyl)cyclohexanecarboxylic acid	397.65	
1068-22-0	Ammonium diethyldithiophosphate	438.65	
1068-55-9	Chloro(1-methylethyl)magnesium	429.15	
1068-57-1	Acetohydrazide	340.15	410.15
1068-58-2	Carbamimidothioic acid, methyl ester, monohydrobromide	360.15	
1068-61-7	2-Propenoic acid, 2-methyl-, lead(2+) salt (2:1)	348.15	
1068-87-7	2,4-Dimethyl-3-ethylpentane	150.75	409.85
1068-90-2	Diethyl acetamidomalonate	368.65	
106826-12-4	Benzene, ethenyl-, polymer with ethene, graft	380.95	
1069-23-4	1,5-Hexadiene-3,4-diol	379.15	414.15
1069-31-4	Ornithine, hydrochloride (1:1)	488.15	
1069-53-0	2,3,5-Trimethylhexane	145.25	404.55
1069-55-2	Isobutyl 2-cyanoacrylate		443.15
1069-72-3	2-Bromo-N,N-diethylethylamine hydrobromide	482.15	
1069-79-0	1,2-Distearoyl-sn-glycero-3-phosphoethanolamine	447.15	
106917-52-6	Flusulfamide	443.15	
106917-61-7	N1-(1,1-Dimethylethyl)-4-methyl-1,3-benzenediamine	330.45	
106939-34-8	Ethyl (3S)-9,10-difluoro-2,3-dihydro-3-methyl-7-oxo-7H-pyrido[1,2,3-de]-1,4-benzoxazine-6-carboxylate	530.65	
106941-25-7	Adefovir	574.15	
107-00-6	1-Butyne	147.45	281.15
107-01-7	2-Butene	133.85	276.88
107-02-8	Acrolein	185.15	325.65
107-03-9	1-Propanethiol	159.85	340.65
107-04-0	1-Bromo-2-chloroethane	256.45	380.15
107-05-1	Allyl chloride	138.15	317.65
107-06-2	1,2-Dichloroethane	237.85	356.65
107-07-3	2-Chloroethanol	205.65	402.15
107-08-4	1-Iodopropane	171.85	375.75
107-10-8	Propylamine	190.15	321.65
107-11-9	Allylamine	185.15	329.65
107-12-0	Propionitrile	181.35	370.35
107-13-1	Acrylonitrile	191.15	350.45
107-14-2	Chloroacetonitrile		399.65
107-15-3	Ethylenediamine	281.65	389.65
107-16-4	Hydroxyacetonitrile		456.15
107-18-6	Allyl alcohol	144.15	370.15
107-19-7	Propargyl alcohol	223.15	293.15
107-20-0	Chloroacetaldehyde	256.85	358.65
107-21-1	Ethylene glycol	260.15	470.45
107-22-2	Glyoxal	288.15	324.15
107-25-5	Methyl vinyl ether	151.15	285.15
107-26-6	Ethylmercury bromide	466.65	
107-27-7	Ethylmercury chloride	465.15	
107-29-9	Aldoxime	320.15	387.65
107-30-2	Chloromethyl methyl ether	169.65	332.65
107-31-3	Methyl formate	173.35	304.65
107-34-6	As-Propylarsonic acid	407.65	
107-35-7	Taurine	601.15	
107-37-9	Trichloro-2-propen-1-ylsilane	308.15	390.65
107-39-1	2,4,4-Trimethyl-1-pentene	179.65	374.55
107-40-4	2,4,4-Trimethyl-2-pentene	166.85	378.05
107-41-5	Hexylene glycol	223.15	471.15
107-43-7	Betaine	566.15	
107-44-8	Sarin	216.15	
107-45-9	2,4,4-Trimethyl-2-pentanamine	451.65	411.15
107-46-0	Hexamethyldisiloxane	207.15	372.65
107-47-1	tert-Butyl sulfide	264.15	422.25
107-48-2	2-(2,2-Dimethylpropyl)-2-methyloxirane	209.15	414.05