CAS	name	Tm	Tb
2913-97-5	1,3-Dihydro-1,3-dioxo-2H-isoindole-2-acetaldehyde	387.65	
29134-54-1	1,1′,1′′-[Methylidynetris(oxymethylene)]tris[benzene]	281.15	
29136-19-4	Nonadecylbenzene	313.15	692.15
2915-52-8	1,4-Didodecyl (2Z)-2-butenedioate	302.15	
2915-90-4	N-Dodecyl-N-methyl-1-dodecanamine	288.65	474.15
29154-49-2	1,4-Benzenedicarboxylic acid, 1,4-dimethyl ester, polymer with 1,2-ethanediol and 2,2′-oxybis[ethanol]	532.15	
2916-24-7	C,C′-[1,4-Cyclohexanediylbis(methylene)] dicarbonochloridate	336.15	
2916-28-1	2-Ethyl-2,4-dimethyl-1,3-dioxolane		396.9
2916-31-6	2,2-Dimethyl-1,3-dioxolane		365.65
29160-13-2	1-Butene-propylene copolymer	623.15	
29168-87-4	Methyl 4-(3,3-dimethyl-1-triazen-1-yl)benzoate	372.65	
2917-26-2	Hexadecanethiol	291.15	607.15
2917-46-6	Bis(chloromethyl)dimethylsilane		436.65
2917-47-7	3-(Trimethylsilyl)-1-propanol		414.15
2917-65-9	Methanol, 1-(trimethylsilyl)-, 1-acetate		409.65
2917-73-9	Dibutyl azelate		609.15
2917-98-8	1,4-Bis(2-oxiranylmethyl)piperazine	315.65	
29170-08-9	4-Iodo-4′-nitro-1,1′-biphenyl	477.15	
29171-23-1	Dehydroisophytol	403.15	
29171-77-5	L-Iditol, 2,3:4,5-dianhydro-, 1,6-dimethanesulfonate	402.65	
29177-84-2	Ethyl loflazepate	466.65	
2918-67-4	N-Cyclohexyl-2-methyl-2-propenamide	384.15	
2918-83-4	4-[2-(4-Hydroxyphenyl)diazenyl]benzenesulfonic acid	545.65	
29181-50-8	2,4-Pyridinedicarbonitrile	362.65	
29182-97-6	2-Bromo-N-methyl-N-phenylacetamide	320.2	
2919-23-5	Cyclobutanol	535.65	397.15
2919-66-6	Melengestrol acetate	498.15	
29197-19-1	3-[(3-Nitrophenyl)methylene]-2,4-pentanedione	369.15	
292-45-5	1,2,4,6-Tetrathiepane	355.15	
292-46-6	Lenthionine	333.65	
292-64-8	Cyclooctane	287.95	422.15
2920-38-9	4-Cyanobiphenyl	358.65	
2920-86-7	Prednisolone 21-hemisuccinate	481.15	
29204-02-2	Gadoleic acid	296.65	
29205-06-9	Fluocortolone pivalate	460.15	
2921-14-4	Carboxymethoxylamine hemihydrochloride	423.65	
2921-20-2	Tetradecylthioacetic acid	338.15	
2921-88-2	Chlorpyrifos	314.65	
2921-92-8	Propatyl nitrate	324.65	
29210-76-2	2,6-Dimethyl-7-octyne-2,6-diol	318.15	
29210-77-3	3,7-Dimethyl-1-octen-3,7-diol	325.35	
29216-28-2	Mequitazine	403.65	
29218-27-7	Toloxatone	349.15	
2922-40-9	4-Nitro-DL-phenylalanine	507.65	
2922-41-0	4-Amino-DL-phenylalanine	516.65	
2922-51-2	2-Heptadecanone	321.15	593.15
2922-83-0	L-Kynurenine	492.15	
29228-93-1	4-(Diethylamino)benzaldehyde 2-[[4-(diethylamino)phenyl]methylene]hydrazone	457.65	
2923-16-2	Acetic acid, 2,2,2-trifluoro-, potassium salt (1:1)	417.15	
2923-17-3	Lithium trifluoroacetate	523.15	
2923-18-4	Sodium trifluoroacetate	480.15	
2923-28-6	Silver triflate	559.15	
2923-66-2	1-(3-Chloro-4-fluorophenyl)ethanone	314.65	
2923-96-8	4-Fluoro-2-nitrobenzaldehyde	305.65	
29232-93-7	Pirimiphos methyl	288.15	
2924-15-4	Hydrazine, (2-fluorophenyl)-, hydrochloride (1:1)	459.15	
2924-16-5	3-Fluorophenylhydrazine hydrochloride	520.15	
2924-67-6	Fluoresone	314.15	
29253-36-9	Isopropylnaphthalene		548.15
2926-27-4	Potassium trifluoromethanesulfonate	503.15	
29267-67-2	2-Methoxyresorcinol	362.65	
2927-71-1	2,4-Dichloro-5-fluoropyrimidine	311.65	
2927-83-5	2,3,3,3-Tetrafluoro-2-(trifluoromethoxy)propanoyl fluoride		272.15
2928-43-0	[1,1′-Biphenyl]-2-methanol	323.65	
29289-13-2	2-Iodo-4-methylaniline	310.15	
29289-35-8	α-Azidobenzeneacetic acid	371.65	
2929-14-8	4-Hydroxy-8-methoxy-2-quinolinecarboxylic acid	522.65	
2929-81-9	4-(Dimethylamino)benzaldehyde thiosemicarbazone	398.15	
2929-91-1	Methanediol, 1-(4-nitrophenyl)-, 1,1-diacetate	396.15	
2929-95-5	(T-4)-Bis[O,O-bis(1-methylethyl) phosphorodithioato-κS,κS′]zinc	487.65	
29291-15-4	2,3-Diphenyl-4-thiazolidinone	403.65	
29293-06-9	3-Methyl-2-pentene-1,5-diol	369.65	
29294-36-8	1,4-Benzenedicarboxylic acid, polymer with decanedioic acid, 2,2-dimethyl-1,3-propanediol and 1,2-ethanediol	396.15	
293-30-1	1,3,5,7-Tetroxocane	385.15	443.15
293-55-0	Cyclononane	282.85	
293-96-9	Cyclodecane	283.15	475.15
2930-05-4	Benzyl glycidyl ether	362.95	
2930-32-7	Thiopyrylium, 2,6-bis(4-ethylphenyl)-4-[4-(pentyloxy)phenyl]-, perchlorate (1:1)	420.15	
2930-80-5	Cholesteryl iodide	378.15	
29307-03-7	Deoxyelephantopin	472.15	
2931-89-7	5-Ethoxy-4-hydroxy-1,3-benzenedicarboxaldehyde	379.4	
2931-90-0	4-Hydroxy-5-methoxy-1,3-benzenedicarboxaldehyde	393.15	
29311-53-3	trans-β-Hydromuconic acid	466.65	
29311-94-2	1,4-Bis[(3-chloro-2-hydroxypropyl)amino]-9,10-anthracenedione	441.15	
29312-59-2	4-(2,6-Diphenyl-4-pyridinyl)-N,N-dimethylbenzenamine	410.15	
29315-80-8	1,1′-Sulfonylbis[chlorobenzene]	413.15	
29316-05-0	sec-Pentylbenzene	203.15	473.15
29317-75-7	1,3-Benzenediol, polymer with sulfur chloride (S2Cl2)	450.15	
29328-30-1	Benzenesulfonic acid, 4-hydroxy-, compd. with benzenamine (1:1)	495.15	
2933-29-1	4,5,6,7-Tetrahydro-2-benzothiazolamine	360.65	
2933-59-7	2-(1-Naphthalenylamino)ethanol	322.65	
2933-75-7	2-[(2-Methoxyphenyl)amino]ethanol	392.65	
2933-94-0	Toliprolol	349.15	
29331-39-3	Cholesterol carbonate	449.15	
29331-92-8	Licarbazepine	459.65	
29334-16-5	4-Bromo-α-phenylbenzenemethanol	338.15	
29334-18-7	4-Bromo-α-(4-bromophenyl)benzenemethanol	447.65	
29338-49-6	α-Methyl-β-phenylbenzeneethanol	335.15	
2934-05-6	2,4-Diisopropylphenol		502.15
2934-07-8	2,4,6-Triisopropylphenol		522.15
2934-97-6	(±)-Tetrahydropalmatine	418.15	
29342-05-0	Ciclopirox	417.15	
29342-53-8	2-Chloronorbornane	268.15	435.15
2935-23-1	cis-Chrysanthemic acid	386.15	
2935-35-5	L-Phenylglycine	499.65	
2935-44-6	2,5-Hexanediol	264.15	489.15
2935-63-9	2-(2,3-Dimethylphenoxy)acetic acid	390.15	
2935-90-2	Methyl 3-mercaptopropionate	311.15	439.15
29350-73-0	Cadinene	493.15	544.65
29354-98-1	Hexadecanol	322.65	
29369-63-9	N-Methyl-1-tetradecanamine	301.65	
2937-50-0	Allyl chloroformate		383.15
2937-53-3	Thiosulfuric acid (H2S2O3), S-(2-aminoethyl) ester	462.15	
2937-54-4	Thiotaurine	486.65	
2937-59-9	2,6-Bis(hydroxymethyl)phenol	418.15	
2937-60-2	4-Hydroxy-1,3-benzenedimethanol	369.15	
2937-61-3	2-Hydroxy-1,3,5-benzenetrimethanol	345.65	
2937-81-7	1,3,4-Thiadiazole-2,5-diamine	483.15	
2937-98-6	4-Pentylmorpholine		468.15
2938-48-9	2,2-Dimethylglutaric anhydride	397.15	
2938-98-9	2-Methyl-1,4-butanediol		399.65
29387-92-6	(Dimethylamino)azobenzene	385.65	
29388-59-8	(-)-Secoisolariciresinol	386.15	
2939-66-4	10,11-Dihydro-5-[3-(methylamino)propyl]-5H-dibenzo[a,d]cyclohepten-5-ol	364.65	
2939-80-2	cis-N-(1,1,2,2-Tetrachloroethylthio)-4-cyclohexene-1,2-dicarboximide	427.9	
294-41-7	Cycloundecane	265.85	
294-62-2	Cyclododecane	333.55	520.15
294-90-6	1,4,7,10-Tetraazacyclododecane	384.65	
294-92-8	1,7-Dioxa-4,10-diazacyclododecane	356.15	
294-93-9	12-Crown-4	289.15	338.65
29400-42-8	Helvolic acid	485.15	
2941-23-3	2-Amino-1-cyclopentene-1-carbonitrile	420.65	
2941-29-9	2-Oxocyclopentanecarbonitrile		502.65
2941-63-1	2-Methyl-6-nitrobenzothiazole	479.65	
2941-64-2	Ethyl chlorothioformate		409.15
2941-66-4	2-Methyl-5-nitrobenzothiazole	413.15	
2941-69-7	5-Methoxy-2-methylbenzothiazole	318.15	
2941-72-2	6-Methoxy-2-methylbenzothiazole	455.15	
2941-78-8	2-Amino-5-methylbenzoic acid	450.15	
29418-59-5	1-(4-Methoxyphenyl)-2-(4-nitrophenyl)diazene	427.15	
29418-67-5	2-Bromobenzoic acid hydrazide	425.15	
29419-95-2	Methyl (αS,2S)-α-phenyl-2-piperidineacetate hydrochloride (1:1)	493.15	
2942-06-5	6-Nitrobenzothiazole	446.65	
2942-40-7	4-Nitro-1H-indazole	475.65	
2942-42-9	7-Nitroindazole	460.15	
2942-59-8	2-Chloronicotinic acid	463.65	
29420-49-3	Potassium perfluorobutanesulfonate	723.15	
29422-01-3	Thiophene, 3,3′-oxybis[tetrahydro-, 1,1,1′,1′-tetraoxide	434.9	
29427-58-5	Carbamimidic acid, methyl ester, sulfate (1:1)	390.65	
29427-69-8	3-Oxo-1-indancarboxylic acid	357.15	
29429-03-6	Pseudolycorine	520.65	
2943-56-8	Thymine glycol	493.15	
29430-22-6	Testosterone, octanoate	317.65	
29430-26-0	(17β)-17-[(1-Oxo-10-undecen-1-yl)oxy]androst-4-en-3-one	329.65	
29431-45-6	4-Chloro-2,5-diphenyloxazole	344.65	
29435-48-1	Poly[(-)-3-hydroxybutyric acid]	448.15	
2944-06-1	2-Butenedioic acid (2Z)-, 1-hexadecyl ester	344.4	
2944-12-9	1,4-Bis(phenylamino)-9,10-anthracenedione	490.15	
2944-19-6	1-[(4-Methylphenyl)amino]-9,10-anthracenedione	431.65	
2944-26-5	1,8-Bis(phenylamino)-9,10-anthracenedione	442.85	
2944-27-6	1,5-Bis(phenylamino)-9,10-anthracenedione	527.35	
2944-28-7	C.I. Disperse Red 22	420.65	
2944-30-1	1,4-Bis[(4-methoxyphenyl)amino]-9,10-anthracenedione	503.15	
2944-49-2	2,3-Dimethylanisole	302.15	472.15
2944-58-3	Benzoic acid, 2-hydroxy-, 4-chlorophenyl ester	336.15	
29446-15-9	2,3-Dichlorodibenzo-p-dioxin	436.15	
2945-03-1	2-Bromo-N-(phenylmethyl)acetamide	379.9	
29450-07-5	2-(2-Pyridinyloxy)ethanamine	492.15	511.15
2946-76-1	2-Methyl-1-phenylpiperazine	341.15	
2946-89-6	3,5-Dimethyl-N-nitro-1H-pyrazole-1-carboximidamide	399.15	
29462-18-8	Bentazepam	541.15	
2947-00-4	4-[2-(Ethylamino)-1-hydroxyethyl]-1,2-benzenediol	444.65	
2947-60-6	(3-Methylphenyl)acetonitrile		521.15
2947-61-7	4-Methylphenylacetonitrile	291.15	515.65
29477-54-1	2-Hydroxy-3′,4′-dihydroxyacetophenone	468.15	
29477-83-6	Narciclasine	519.15	
2948-46-1	α1,α1,α4,α4-Tetramethyl-1,4-benzenedimethanol	414.65	
2949-22-6	Ethyl isocyanatoacetate		339.65
2949-26-0	2-Ethynylnaphthalene	309.15	
2949-92-0	S-Methyl methanethiosulfonate	391.15	
29490-19-5	2-Mercapto-5-methyl-1,3,4-thiadiazole	447.65	
295-02-3	Cyclotridecane	296.65	
295-17-0	Cyclotetradecane	326.9	
295-37-4	1,4,8,11-Tetraazacyclotetradecane	446.15	
295-48-7	Cyclopentadecane	334.45	
295-64-7	1,4,7,10,13-Pentaazacyclopentadecane	374.15	
295-65-8	Cyclohexadecane	334.15	
2950-43-8	Hydroxylamine-O-sulfonic acid	483.15	
2950-45-0	2,2,4,4,6,6,8,8-Octachloro-2λ5,4λ5,6λ5,8λ5-1,3,5,7,2,4,6,8-tetrazatetraphosphocine	396.65	
29510-13-2	Dicarbamimidothioic acid, hydrochloride (1:2)	451.15	
29512-49-0	6′-(Diethylamino)-3′-methyl-2′-(phenylamino)spiro[isobenzofuran-1(3H),9′-[9H]xanthen]-3-one	469.15	
29518-11-4	4-Phenyl-3-morpholinone	386.15	
2952-70-7	Cyprinol	515.15	
2954-50-9	2-Aminotetralin	423.15	
29548-30-9	Farnesyl acetate	336.65	
29549-60-8	2-(Ethylthio)phenol		483.15
29549-78-8	5-Acetyldihydro-2-hydroxy-2,5-dimethyl-3(2H)-furanone	325.65	
2955-37-5	7-Chloro-5-(2-chlorophenyl)-1,3-dihydro-2H-1,4-benzodiazepin-2-one-4-oxide	521.65	
2955-38-6	Prazepam	418.65	
2955-65-9	3,6-Octanedione	307.65	
2955-88-6	1-Pyrrolidineethanol	478.15	461.15
29552-15-6	4-Chloro-2-methyl-3-butyn-2-ol	354.65	373.15
29553-26-2	3,3,4,4-Tetrafluoro-2-methyl-2-butanol		392.65
29555-02-0	2-Methylcyclopropanecarboxylic acid		464.15
29558-77-8	4-Bromo-4′-hydroxybiphenyl	438.15	
29558-78-9	4-Hydroxy-4′-iodobiphenyl	467.15	
29558-88-1	Benzoic acid, 4-chloro-, 4-fluorophenyl ester	367.65	
29560-58-5	Ethmozine	462.15	
2957-21-3	Sakuranetin	425.15	
2958-05-6	(5β)-3,12-Dioxocholan-24-oic acid	388.15	
2958-36-3	2-Amino-2′,5-dichlorobenzophenone	361.65	
2958-75-0	Decahydro-1-methylnaphthalene		353.65
2958-87-4	2,3,6-Trichloroquinoxaline	416.65	
2958-98-7	2-Amino-3,9-dihydro-3-methyl-6H-purin-6-one	573.15	
29582-39-6	(2E)-4-(4-Chlorophenyl)-4-oxo-2-butenoic acid	427.35	
2959-74-2	Diphenyl(phenylmethyl)phosphine oxide	465.65	
2959-75-3	(1-Methylethyl)diphenylphosphine oxide	418.65	
2959-96-8	2-Phenylglutaric anhydride	368.15	
29593-61-1	Palmitostearin	307.15	
29598-76-3	AO 412S	322.65	
296-35-5	1,4,7,10,13,16-Hexaazacyclooctadecane	474.15	
296-39-9	1,4,10,13-Tetraoxa-7,16-dithiacyclooctadecane	363.65	
2960-55-6	trans-4-Nitrochalcone	437.4	
29602-39-9	2-[(2-Aminoethyl)amino]-5-nitropyridine	396.15	
29604-16-8	Oxyprothepine	368.15	
29606-79-9	Isopulegone		373.65
29608-49-9	Almitrine bismesylate	516.15	
2961-04-8	1,4,5-Trihydroxyanthraquinone	528.15	
2961-50-4	4-Pentylpyridine		502.65
2961-62-8	Ioxynil sodium	633.15	
2961-63-9	Ioxynil potassium salt	593.15	
2961-68-4	Bromoxynil potassium	633.15	
29611-84-5	Collidine		439.65
29619-64-5	Decanoic acid, 2-methyl-, methyl ester		379.15
29621-88-3	L-Selenocystine	495.15	
2963-64-6	2-(2-Methylphenyl)-1H-benzimidazole	384.65	
2963-66-8	2-(2′-Hydroxyphenyl)benzimidazole	515.15	
2963-87-3	trans-Acenaphthene-1,2-diol	423.15	
29632-74-4	2-Fluoro-4-iodoaniline	325.65	
29635-81-2	Valine phenylthiohydantoin	481.15	
29636-75-7	3-Bromo-1-phenyl-1-propanone	331.65	
29636-87-1	4-(Hydroxymethyl)-5-methylimidazole	409.15	
2964-09-2	Ethanaminium, 2-(benzoyloxy)-N,N,N-trimethyl-, chloride (1:1)	473.15	
2964-33-2	2-[(4-Chlorophenyl)methyl]propanedinitrile	362.15	
2964-48-9	(1S,2S)-2-Amino-1-(4-nitrophenyl)-1,3-propanediol	436.65	
29644-97-1	4-Amino-α-ethylbenzeneacetic acid	415.65	
29644-98-2	α-Ethyl-4-hydroxybenzeneacetic acid	403.15	
29644-99-3	α-Ethyl-4-methoxybenzeneacetic acid	340.65	
29645-00-9	4-Chloro-α-ethylbenzeneacetic acid	357.15	
29654-55-5	3,5-Dihydroxybenzyl alcohol	455.15	
2966-50-9	Silver trifluoroacetate	525.15	
29661-89-0	Formaldehyde, polymer with 1,3-dimethylbenzene and phenol	350.65	
29663-54-5	Cycloheptatrienylium, hexafluorophosphate(1-) (1:1)	475.65	
29668-44-8	1,4-Benzodioxan-6-carboxaldehyde	323.15	
29670-64-2	N-(2-Benzoylphenyl)benzamide	371.15	
29671-83-8	Propanoic acid, 2-hydroxy-, 2-hydroxyethyl ester		559.15
29671-92-9	Chloroformamidine hydrochloride	403.15	
29682-41-5	1,4-Dichloro-2-iodobenzene	295.15	526.15
29682-44-8	1-Bromo-2,4,5-trichlorobenzene	412.15	
29683-84-9	2-Thiophenecarboxaldehyde, oxime	401.65	
2969-81-5	Ethyl 4-bromobutyrate	372.15	
29690-82-2	o-Cresol-epichlorohydrin-formaldehyde copolymer	343.15	
29694-02-8	4,7-Methano-1H-indene, 3a,4,7,7a-tetrahydro-, polymer with 1-butene and ethene	318.15	
29697-08-3	Nonanedioic acid, polymer with 1,6-hexanediol	326.65	
297-76-7	Ethynodiol diacetate	417.15	
297-78-9	Isobenzan	394.15	
297-90-5	Orphan	525.15	
297-97-2	Thionazin	271.45	353.15
297-99-4	trans-Phosphamidon	228.15	
2970-26-5	N-Butyl-8-hydroxy-5-methyl-1-naphthalenesulfonamide	368.65	
29700-22-9	Oxyresveratrol	474.9	
29701-85-7	Octyldiphenylphosphine oxide	337.65	
29706-59-0	Lucidin primeveroside	484.15	
29706-96-5	(-)-3,5,7,11b-Tetrahydroxy-1,1,9-trimethyl-2H-benzo[cd]pyrene-2,6,10(1H,11bH)-trione	512.15	
29707-62-8	4-Thia-1-azabicyclo[3.2.0]heptane-2-carboxylic acid, 3,3-dimethyl-7-oxo-6-[(phenoxyacetyl)amino]-, (4-nitrophenyl)methyl ester, 4-oxide, (2S,5R,6R)-	453.65	
29709-08-8	Anteiso-C18:0	316.75	
2971-22-4	Diphenyltrichloroethane	338.15	
2971-36-0	2,2-Bis(p-hydroxyphenyl)-1,1,1-trichloroethane	475.15	
2971-90-6	Clopidol	593.15	
29712-28-5	P,P′-(Aminomethylene)bis[phosphonic acid]	564.15	
29714-87-2	Ocimene		373.15
2972-01-2	Cyclodecanone, oxime	353.15	
2972-76-1	2,4-Dichlorobenzylidenemalononitrile	424.65	
2972-78-3	(2,4-Dimethoxybenzylidene)malononitrile	417.15	
2972-82-9	2-(1,3-Benzodioxol-5-ylmethylene)propanedinitrile	471.75	
2972-83-0	(1-Naphthylmethylene)malononitrile	443.9	
2972-84-1	2-(2-Naphthalenylmethylene)propanedinitrile	413.65	
29728-34-5	Olean-12-en-29-oic acid, 3-(acetyloxy)-11-oxo-, aluminum salt (3:1), (3β,20β)-	561.15	
2973-00-4	Dibromodinitromethane	280.55	
2973-15-1	N-(2-Nitrophenyl)maleimide	403.65	
2973-17-3	N-Allylmaleimide	318.15	
2973-19-5	2-(Chloromethyl)-4-nitrophenol	402.65	
2973-21-9	N4-Methyl-2-nitro-1,4-benzenediamine	388.65	
2973-50-4	2-Aminobenzeneacetonitrile	345.15	
2973-59-3	2-Bromo-5-hydroxy-4-methoxybenzaldehyde	388.15	
2973-75-3	2,3-Dibromo-4-hydroxy-5-methoxybenzaldehyde	491.15	
2973-76-4	5-Bromovanillin	487.15	
2973-77-5	3,5-Dibromo-4-hydroxybenzaldehyde	458.15	
2973-78-6	3-Bromo-4-hydroxybenzaldehyde	398.65	
29731-07-5	Formaldehyde, polymer with 1,2-benzenediol and phenol	340.15	
29734-68-7	1H,12H-Pyrano[4′,3′:3,4]pyrido[2,1-i]indol-12-one, 2,3,5,6,8,9,10,13-octahydro-2-methoxy-, hydrobromide (1:1), (2S,13bS)-	497.15	
2974-92-7	PCB 12	319.15	
29743-08-6	4′-Ethoxybenzylidene-4-butylaniline	307.15	
29745-04-8	Norcantharidin	389.65	
2975-08-8	Benzeneacetic acid, α-[(3-methoxy-1-methyl-3-oxo-1-propen-1-yl)amino]-, sodium salt (1:1)	519.15	
2975-34-0	1-Propanone, 1-[10-[3-[4-(2-hydroxyethyl)-1-piperazinyl]propyl]-10H-phenothiazin-2-yl]-, (2Z)-2-butenedioate (1:2)	449.15	
2975-36-2	10H-Phenothiazine, 10-[(1-methyl-3-piperidinyl)methyl]-, hydrochloride (1:1)	453.65	
2975-41-9	2-Aminoindane	306.65	520.15
2975-99-7	1-(2-Furanyl)-3-phenyl-2-propyn-1-one	325.15	423.65
2976-32-1	1-(Methylsulfonyl)-3-nitrobenzene	419.15	
2976-74-1	2,3-Dichlorophenoxyacetic acid	447.15	
2976-75-2	Naphthoxyacetic acid	469.15	
2976-94-5	4-(Methylnitrosoamino)phenol	409.15	
29765-00-2	N-[5-[Bis[2-(acetyloxy)ethyl]amino]-2-[2-(4-nitrophenyl)diazenyl]phenyl]benzamide	386.15	
29767-20-2	Teniposide	517.15	
2977-69-7	2-[(Dimethylamino)methyl]-6-methoxy-4-nitrophenol	468.15	
2977-70-0	Phenol, 4-amino-2-methoxy-6-methyl-, hydrochloride (1:1)	540.15	
2977-71-1	Phenol, 2-amino-4-methyl-, hydrochloride (1:1)	496.15	
29772-54-1	2,3,3-Trimethyl-2-butanamine	373.15	394.65
29774-74-1	(2R)-Pteroside B	393.15	
2978-11-2	(4-Nitrophenyl)methyl N,N′-bis(1-methylethyl)carbamimidate	315.15	
2978-58-7	1,1-Dimethylpropargylamine	291.15	352.65
29781-81-5	Decyl α-D-glucopyranoside	410.15	
29782-68-1	Silydianin	459.15	
2979-19-3	3,3-Dimethylcyclohexanone	446.15	453.15
2979-24-0	2-Methoxycyclohexanol	351.65	
29790-29-2	2,4,4-Trimethyl-3-[(1E)-3-oxo-1-buten-1-yl]-2-cyclohexen-1-one	326.65	
29797-40-8	Dichloromethylbenzene		467.65
298-00-0	Parathion-methyl	308.65	
298-01-1	cis-Mevinphos	294.15	374.15
298-04-4	Disulfoton	248.15	
298-07-7	Bis(2-ethylhexyl) phosphate	223.15	
298-12-4	Glyoxylic acid	371.15	
298-14-6	Potassium bicarbonate	373.15	
298-18-0	rel-(2R,2′R)-2,2′-Bioxirane	276.15	417.15
298-36-2	5α-Dihydrodeoxycorticosterone	431.15	
298-45-3	(+)-Bulbocapnine	472.65	
298-46-4	Carbamazepine	463.35	
298-57-7	Cinnarizine	393.35	
298-59-9	Ritalin	498.15	
298-81-7	8-Methoxypsoralen	421.15	
298-95-3	Neotetrazolium chloride	570.15	
298-96-4	Triphenyltetrazolium chloride	516.15	
2980-32-7	Demethylbellidifolin	590.15	
2980-33-8	3,5-Dinitro-2(1H)-pyridinone	448.15	
2980-64-5	DNOC-ammonium	478.15	
2980-74-7	Glycine, (2R,3R)-2-[(2,2-dichloroacetyl)amino]-3-hydroxy-3-(4-nitrophenyl)propyl ester	405.65	
29806-73-3	Octyl palmitate	275.15	
29809-14-1	5-Nitrotetralin	401.65	
2981-10-4	1-(1-Cyclohexen-1-yl)piperidine		390.15
29814-17-3	6,7-Dihydro-5H-cyclopenta[d][1,2,4]triazolo[1,5-a]pyrimidin-8-ol	593.15	
29816-01-1	Glycylsarcosine	473.65	
2982-54-9	Benzeneethanamine, 4-(phenylmethoxy)-, hydrochloride (1:1)	474.15	
29826-16-2	Dihydronovobiocin	437.15	
2983-21-3	α-Heptyl-γ-butyrolactone	282.65	
2983-35-9	1,1,2-Ethanetriol, 1,1,2-triacetate	324.65	
29830-11-3	Nonenoic acid		408.15
29836-26-8	Octyl β-D-glucopyranoside	381.65	
29839-75-6	Tetrahydro-2,2,3,5,5-pentamethyl-3-furanol	350.15	
2984-50-1	2-Hexyloxirane		338.15
2984-55-6	(±)-2-Hydroxydodecanoic acid	319.65	
2984-80-7	Phosphoric acid, 2-chloro-1-(2,4-dibromophenyl)ethenyl dimethyl ester	365.15	
29841-69-8	(-)-(S,S)-1,2-Diphenylethylenediamine	356.15	
2985-59-3	2-Hydroxy-4-dodecyloxybenzophenone	322.65	
2986-00-7	α-Acetyl-α-chloro-γ-butyrolactone	275.75	
2986-17-6	N,N′-Bis(1-methylethyl)thiourea	415.15	
2986-19-8	Methylisothiourea	517.15	
29864-54-8	7-Deoxy-D-altro-2-heptulose	455.65	
29866-18-0	6-(Phenylmethyl)-9H-purine	423.15	
2987-16-8	3,3-Dimethylbutanal		372.15
2987-17-9	Cyclobutanecarboxaldehyde		390.15
2987-46-4	Rhodan	330.4	
2987-53-3	2-(Methylthio)aniline	488.15	507.15
2987-66-8	1,5-Bis(methylamino)-9,10-anthracenedione	492.15	
2987-68-0	Benzamide, N,N′-(9,10-dihydro-9,10-dioxo-1,4-anthracenediyl)bis-	559.65	
29870-72-2	Cadmium mercury telluride ((Cd,Hg)Te)	943.15	
29876-08-2	Bunitrolol hydrochloride	437.15	
29876-14-0	Tryptamide	425.65	
29878-31-7	4-Methylbenzotriazole	419.65	
29878-91-9	[1,1′-Binaphthalene]-8,8′-dicarboxylic acid	579.65	
29883-15-6	Amygdalin	497.65	
29886-19-9	Adenosine, 2′,3′-diacetate	454.65	
29897-82-3	1-(Phenylmethyl)pyrrolidine	399.9	508.15
29898-25-7	1-Phenyl-3-hexanone		536.15
29898-32-6	2,4-Dichloro-1-iodobenzene		533.15
299-11-6	Phenazine methosulfate	430.15	
299-26-3	(±)-α-Methyltryptamine	370.65	
299-27-4	Potassium gluconate	379.15	
299-28-5	Calcium gluconate	393.15	
299-35-4	3-[(4-Amino-2-methyl-5-pyrimidinyl)methyl]-5-(2-hydroxyethyl)-4-methyl-2(3H)-thiazolethione	511.65	