CAS	name	Tm	Tb
1710-98-1	4-tert-Butylbenzoyl chloride	451.4	
17102-64-6	(2E,4E)-2,4-Hexadien-1-ol	303.65	
17109-49-8	Edifenphos	248.15	
1711-02-0	4-Iodobenzoyl chloride	337.15	
1711-06-4	3-Methylbenzoyl chloride	250.15	492.65
1711-07-5	3-Fluorobenzoyl chloride	243.15	462.15
1711-09-7	3-Bromobenzoyl chloride	413.55	
1711-40-6	4-(1,1-Dimethylethyl)benzenecarboperoxoic acid	355.4	
1711-41-7	2-Nitrobenzenecarboperoxoic acid	280.9	
1711-66-6	2,1,3-Benzothiadiazole-4,5-diamine	440.65	442.15
17110-51-9	Cholesteryl oleyl carbonate	293.15	
17117-34-9	3-Nitrobenzanthrone	525.15	
17119-15-2	3-Hydroxymandelic acid	404.65	
1712-64-7	Isopropyl nitrate		373.15
1712-69-2	1-Methoxy-4-(1-methylethenyl)benzene	305.15	
1712-70-5	1-Chloro-4-(1-methylethenyl)benzene		362.15
17122-21-3	1-Nitro-3-nitrosobenzene	364.15	
17122-56-4	N-(4-Chlorophenyl)-2-(hydroxyimino)acetamide	438.15	
171228-49-2	Posaconazole	437.65	
17123-82-9	3-(4-Chlorophenyl)-1-(1-piperidinyl)-2-propen-1-one	406.15	
17126-90-8	2-Oxoheptanedioic acid	366.65	
1713-07-1	3-Amino-5-acetylamino-2,4,6-triiodobenzoic acid	532.15	
1713-85-5	Chlorolactic acid	350.15	
17131-24-7	3-(4-Methylphenoxy)-1,2-propanediol	346.65	
17131-52-1	3-(4-Methoxyphenoxy)-1,2-propanediol	354.15	
17132-74-0	(4aR,16aS)-3,4,4a,5,16a,17,18,19-Octahydro-9,21,26-trimethoxy-4,17-dimethyl-2H-1,24:12,15-dietheno-6,10-metheno-16H-pyrido[2′,3′:17,18][1,10]dioxacycloeicosino[2,3,4-ij]isoquinolin-22-ol	508.65	
17135-49-8	1,4-Bis(4-fluorophenyl)-1-butanone	323.15	
17135-78-3	2-Chloroanthracene	490.65	
17136-36-6	N-(Phenylmethyl)glycine	472.15	
17137-11-0	1,3-Dihydro-1,3-dioxo-2H-isoindole-2-propanoyl chloride	380.65	
17138-28-2	Ethyl 4-hydroxyphenylacetate	310.15	
17140-68-0	1H-Purine-2,6-dione, 7-[2-(diethylamino)ethyl]-3,7-dihydro-1,3-dimethyl-, hydrochloride (1:1)	513.15	
17141-63-8	Manganese dinitrate hexahydrate	299.15	
17148-49-1	5-Fluoro-2-methoxypyrimidine		436.65
1715-81-7	1-Hydroxy-9-anthrone	512.15	
17151-27-8	[(Ethoxydimethylsilyl)methyl]benzene		483.65
17157-48-1	Acetaldehyde, bromo-	410.15	382.65
17159-79-4	Ethyl 4-oxocyclohexanecarboxylate	496.65	
171596-29-5	Tadalafil	575.15	
171611-11-3	Lithium bis(fluorosulfonyl)imide	399.15	
17165-55-8	2-Propen-1-yl 2,2,3,3,4,4,4-heptafluorobutanoate		383.15
17167-73-6	Acetaldehyde, methylhydrazone	331.15	
1717-00-6	1,1-Dichloro-1-fluoroethane	169.65	305.15
1717-50-6	2,2,4,4-Tetrafluoro-1,3-dithietane	267.15	320.65
17174-98-0	2-Cyanobenzamide	417.15	
17176-77-1	Dibenzyl phosphite	268.15	435.15
17180-93-7	4-Chloropyrimidine	438.15	
17180-94-8	5-Chloropyrimidine	309.65	
17181-54-3	β-Glycerophosphate		503.15
1719-53-5	Dichlorodiethylsilane	176.65	403.15
1719-57-9	Chloro(chloromethyl)dimethylsilane		388.65
1719-58-0	Chloroethenyldimethylsilane		356.65
1719-76-2	N-(1-Methylethyl)thiourea	442.65	
1719-83-1	3a,4,4a,7a,8,8a-Hexahydro-4,8-etheno-1H,3H-benzo[1,2-c:4,5-c′]difuran-1,3,5,7-tetrone	618.65	
1719-88-6	Benzoic acid, 3,4,5-trimethoxy-, 1,1′-anhydride	429.15	
17194-00-2	Barium hydroxide	681.15	
17194-82-0	(4-Hydroxyphenyl)acetamide	443.15	
17196-50-8	N2,N2-Dimethyl-N6-(1-oxohexadecyl)lysine	406.15	
17196-51-9	N2,N2-Dimethyl-N6-[(9Z)-1-oxo-9-octadecen-1-yl]lysine	414.15	
17199-19-8	2-Propanaminium, 1-hydroxy-N,N,N,2-tetramethyl-, iodide (1:1)	510.65	
17199-29-0	(S)-Mandelic acid	407.15	
17199-30-3	1-(2,4-Dichlorophenoxy)-2-propanone	327.65	
17199-55-2	Betamethadol	379.65	
1720-32-7	1,6-Diphenyl-1,3,5-hexatriene	469.15	
17200-29-2	5-Chlorobenzoxazole	313.65	475.15
17201-43-3	4-Cyanobenzyl bromide	387.15	
1721-26-2	Ethyl 2-methyl-3-pyridinecarboxylate	419.65	
1721-69-3	Lup-20(29)-ene-3,28-diol, 3,28-diacetate, (3β)-	491.4	
1721-89-7	2,3-Dimethylquinoline	341.65	536.15
1721-93-3	1-Methylisoquinoline	283.15	521.15
1721-94-4	1,3-Dimethylisoquinoline	453.15	535.65
17213-57-9	3,5-Dimethoxybenzoyl chloride	309.65	
17213-58-0	3,5-Dimethoxybenzamide	416.15	
17216-08-9	2-Acetyl-1-tetralone	329.15	
1722-10-7	3-Chloro-6-methoxypyridazine	357.65	
1722-12-9	2-Chloropyrimidine	340.15	348.65
1722-19-6	4,6-Dichloro-N,N-diethyl-1,3,5-triazin-2-amine	352.65	
1722-26-5	(T-4)-(N,N-Diethylethanamine)trihydroboron	269.15	
1722-33-4	(T-4)-Trihydro(methanamine)boron	329.15	
1722-62-9	Mepivacaine hydrochloride	536.15	
17226-43-6	3-Isopropoxy-1,2-propanediol		499.15
17226-75-4	Khellol glucoside	452.15	
17228-64-7	2-Chloro-6-methoxypyridine		458.65
1723-00-8	(+)-Pipecolic acid	540.15	
1723-94-0	1,2-Dimorpholinoethane	348.15	558.15
17230-88-5	Danazol	498.75	
17231-94-6	3,5-Dichlorobenzenethiol	336.65	
17231-95-7	2,3-Dichlorobenzenethiol	319.65	
17233-65-7	2,2′-(1E)-1,2-Ethenediylbis[5-methylbenzoxazole]	464.65	
17239-70-2	2,2′-(1,3-Phenylenedimethylidyne)bis[propanedinitrile]	428.15	
1724-02-3	Glutaconic acid	405.15	
1724-14-7	2-Deoxyribose	361.15	
1724-17-0	Methyl oleanolate	476.15	
1724-19-2	Lanost-8-en-3-ol, 3-acetate, (3β)-	391.15	
1724-30-7	2,2,6,6-Tetrachloro-1-hydroxycyclohexanecarboxamide	475.65	
1724-39-6	Cyclododecanol	350.65	
1724-48-7	Dipropyl glutarate	227.65	538.05
17241-24-6	1,1′-[Methylenebis(oxy)]bis[4-methylbenzene]	314.15	
17241-59-7	2-(Hydroxymethyl)anthraquinone	456.15	
17243-64-0	Ethyl 2-[3-ethyl-4-oxo-5-(1-piperidinyl)-2-thiazolidinylidene]acetate	359.65	
17249-76-2	3,4-Dichlorothiophene	274.15	458.15
17249-80-8	3-Chlorothiophene	211.15	409.65
1725-04-8	Oxacyclotetradecan-2-one	298.65	
1725-82-2	Iodopropargyl alcohol	315.65	
17252-51-6	1,3-Bis(4′-pyridyl)propane	331.65	
172529-93-0	1,3-Dimethyl 2-[2-(2-amino-6-chloro-9H-purin-9-yl)ethyl]propanedioate	414.9	
172529-94-1	2-[2-(2-Amino-6-chloro-9H-purin-9-yl)ethyl]-1,3-propanediol	414.95	
17253-11-1	2,3-Dihydro-1,4-benzodioxin-6-acetic acid	349.15	
17256-39-2	2-Propanamine, 1-chloro-N,N-dimethyl-, hydrochloride (1:1)	464.4	
17256-52-9	2-(Difluoromethylene)-4,4,5-trifluoro-5-(trifluoromethyl)-1,3-dioxolane		317.15
17256-78-9	Hydroxylammonium fluoride	363.15	
1726-08-5	Acetic acid, 2-chloro-, compd. with N,N-dimethylformamide (1:1)	285.15	
17261-28-8	2-(Diphenylphosphino)benzoic acid	439.15	432.15
17264-02-7	1-Cyclohexyl-1-propanol		473.15
172647-53-9	5-[[4-[2-(1H-Indol-1-yl)ethoxy]phenyl]methyl]-2,4-thiazolidinedione	376.15	
17265-30-4	Sodium undecanoate	521.15	
1727-76-0	2,3,3-Trimethyl-1-cyclopentene-1-acetonitrile	498.15	
17278-80-7	16-Hydroxy-9-hexadecenoic acid	343.15	
17279-30-0	(-)-1-Phenylethylamine hydrochloride	442.65	
17281-59-3	Pyridinium, 1-(cyanomethyl)-, chloride (1:1)	451.15	
17281-74-2	1-Phenyl-1,3-octadecanedione	337.65	
17282-40-5	Pyridinium, 1-(2-ethoxy-2-oxoethyl)-, bromide (1:1)	386.65	
17282-41-6	Pyridinium, 1-(2-oxopropyl)-, bromide (1:1)	474.15	
17284-97-8	3-Chloro-6-hydrazinopyridazine	409.15	
17286-26-9	5-Hydroxy-1-naphthalenesulfonamide	527.15	
17289-49-5	Tetrydamine	365.65	
17289-53-1	2-(Diethylamino)-N-(2,4-dimethylphenyl)acetamide	340.65	
1729-17-5	Guanidine, N,N,N′,N′-tetramethyl-, hydrochloride (1:1)	483.15	
1729-51-7	1-(3-Methoxyphenyl)-3-phenyl-2-propen-1-one	315.15	
1729-67-5	Propanoic acid, 2,3-dibromo-, methyl ester		479.15
1729-99-3	8-Bromo-1-naphthalenecarboxylic acid	451.15	
17291-92-8	N-[2-(2,6-Difluorophenyl)ethyl]urea	398.9	
17297-82-4	1-Piperazineethanol, 4-[3-(10H-pyrido[3,2-b][1,4]benzothiazin-10-yl)propyl]-, hydrochloride (1:2)	504.65	
172975-69-8	(3,5-Dimethylphenyl)boronic acid	404.15	
1730-37-6	1-Methylfluorene	358.15	591.25
1730-48-9	6-Methoxy-1,2,3,4-tetrahydronaphthalene	408.65	
1730-91-2	(+)-2-Methylbutanoic acid	492.15	446.15
1730-97-8	(+)-2-Methylbutanal		364.15
17301-22-3	2,5-Dimethylundecane		488.15
17301-94-9	(±)-4-Methylnonane	174.15	438.85
17302-02-2	3,3-Diethylhexane		439.45
17302-46-4	Benzoic acid, 2-hydroxy-5-nitro-, methyl ester	422.15	
17302-82-8	Ethyl 3,5-dichloro-4-hydroxybenzoate	384.65	
17303-67-2	Goniothalamin	353.15	
17306-04-6	1-(4-Bromophenyl)-3-chloro-2-propen-1-one	309.65	
17306-43-3	2-Nitro-1-β-D-ribofuranosyl-1H-imidazole	465.65	
17306-46-6	Rhoifolin	530.65	
17308-02-0	Pregn-4-ene-3,20-dione, 17-(acetyloxy)-, (17α)-	471.15	
1731-79-9	1,12-Dimethyl dodecanedioate	305.05	
1731-84-6	Methyl nonanoate		486.65
1731-86-8	Methyl undecanoate		518.15
1731-88-0	Methyl tridecanoate	279.65	365.15
1731-92-6	Methyl heptadecanoate	303.15	
17311-31-8	2,3-Quinoxalinedimethanol, 1,4-dioxide	443.65	
17316-67-5	P-[1-(Butylamino)-1-methylethyl]phosphinic acid	492.15	
1732-08-7	Dimethyl pimelate	252.15	393.15
1732-09-8	Dimethyl suberate	270.05	541.15
1732-10-1	Dimethyl azelate		448.15
1732-13-4	1,2,3,6,7,8-Hexahydropyrene	406.15	
1732-23-6	2-Aminopyrene	494.15	
1732-72-5	Dibutylphosphine	345.15	456.15
1732-96-3	Ethylene glycol bis(anhydrotrimellitate)	407.15	
17321-77-6	Clomipramine hydrochloride	462.65	
17323-81-8	Phosphoric acid, monomethyl ester, sodium salt (1:2)	354.65	
17324-04-8	3-Methyl-2-naphthol	428.65	
17327-22-9	3,6-Dihydro-4-methoxy-2H-pyran		429.65
17327-80-9	N1-(Phenylmethyl)-N2-[2-[(phenylmethyl)amino]ethyl]-1,2-ethanediamine	333.65	
1733-15-9	1,1,2,2-Tetramethyl 1,1,2,2-ethenetetracarboxylate	392.65	
1733-57-9	Ethyldiphenylphosphine oxide	393.9	
1733-63-7	1,2,2-Triphenylethanone	329.15	
1733-76-2	1,5-Bis(chloromethyl)naphthalene	417.15	453.15
1733-97-7	Pyridinium, 1-(1-naphthalenylmethyl)-, chloride (1:1)	435.15	
17332-39-7	Sulfamic acid, compd. with 1-[(3,4-diethoxyphenyl)methyl]-6,7-diethoxyisoquinoline (1:1)	411.15	
17332-55-7	2-[(4-Butylphenyl)amino]benzoic acid	428.15	
17332-57-9	2-[(4-Carboxyphenyl)amino]benzoic acid	449.15	
17332-58-0	2-[[4-(Methoxycarbonyl)phenyl]amino]benzoic acid	457.15	
173334-57-1	Aliskiren	371.65	
173334-58-2	Aliskiren hemifumarate	384.65	
17334-50-8	(±)-Epicatechin	515.15	
17336-84-4	N1,N1,N3,N3-Tetramethyl-1-butene-1,3-diamine		337.15
17337-13-2	2-Biphenyl isocyanate	329.15	
1734-79-8	4-Nitrocinnamaldehyde	411.65	
17341-25-2	Sodium ion	519.15	
17341-40-1	Hydrazinium, 1-(2-hydroxypropyl)-1,1-dimethyl-2-(2-methyl-1-oxo-2-propen-1-yl)-, inner salt	420.15	
17342-08-4	(5S)-5-(Hydroxymethyl)-2-pyrrolidinone	359.65	
17343-00-9	Glycylglycylvaline	493.15	
17345-68-5	2-Chloro-1-(2,3,4-trihydroxyphenyl)ethanone	442.65	
17345-77-6	4-Bromocatechol	359.15	
17348-59-3	2-Methyl-2-(1-methylethoxy)propane	185.15	360.75
17348-76-4	2′-Hydroxyflavanone	443.15	
1735-17-7	Cyclohexane-d12		351.58
1735-48-4	1,1,1,2,2,3,4,5,5,6,6,6-Dodecafluoro-3,4-bis(trifluoromethyl)hexane		378.65
1735-91-7	2-Nitro-4-(trifluoromethyl)benzeneacetic acid	418.9	
17350-17-3	1-[(Phenylmethoxy)carbonyl]-L-prolyl-L-phenylalanine	399.65	
17352-32-8	Nonadecanal	337.15	
17354-14-2	Solvent Blue 35	407.15	
17354-63-1	1-Methoxy-4-(2-nitro-1-propen-1-yl)benzene	321.15	
17354-79-9	4-[Bis(2-cyanoethyl)amino]benzaldehyde	391.65	
17355-10-1	L-Tyrosyl-L-leucine	553.15	
17355-23-6	N,O-Diacetyl-L-tyrosine	444.15	
17356-19-3	1-Ethynylcyclopentanol	300.15	430.65
17357-14-1	1H-Indol-3-ol, 5-bromo-, 3-acetate	391.65	
17357-38-9	S-Phenyl 2-furancarbothioate	318.65	
17359-54-5	2,4-Dihydroxy-1,4-benzoxazin-3-one	426.65	
17359-82-9	N-(4-Chlorophenyl)benzenecarbohydrazonoyl chloride	379.15	
1736-34-1	6-Chloro-1-ethyl-2-methyl-5-(trifluoromethyl)-1H-benzimidazole	392.65	
1736-60-3	1,2,3,4,5-Pentafluoro-6-(2-propen-1-yl)benzene		423.15
17361-44-3	Ditetradecylamine	330.15	
17362-17-3	4-Hydroxybenzenepropanenitrile	331.65	
17364-41-9	1-Phenyl-3-methyl-4-formyl-5-pyrazolone	447.65	
17369-59-4	Propylidenephthalide	278.15	
1737-80-0	1,1,1,3,3,3-Hexafluoro-2,2-propanediamine		364.4
1737-93-5	3,5-Dichloro-2,4,6-trifluoropyridine		432.65
17371-45-8	β-Methyl-α,α-diphenyl-1-piperidinebutanenitrile	379.4	
17372-79-1	3-Cinnolinamine	483.15	
17372-87-1	Eosin	568.65	
17376-04-4	Phenethyl iodide		494.65
1738-25-6	Dimethylaminopropionitrile	228.95	446.15
1738-36-9	Methoxyacetonitrile	370.15	392.15
1738-69-8	L-Leucine benzyl ester	413.15	
1738-76-7	Glycine, phenylmethyl ester, 4-methylbenzenesulfonate (1:1)	405.65	
1738-77-8	L-Leucine, phenylmethyl ester, 4-methylbenzenesulfonate (1:1)	432.4	
1738-78-9	L-Phenylalanine, phenylmethyl ester, 4-methylbenzenesulfonate (1:1)	444.15	
1738-86-9	N-[(Phenylmethoxy)carbonyl]glycine 4-nitrophenyl ester	394.15	
17380-18-6	3-Formyl-1H-indole-5-carbonitrile	530.15	
17380-83-5	1-(4-Chlorophenyl)cyclohexanol	350.15	
17386-89-9	1-(3,4-Dihydroxyphenyl)-1-butanone	413.15	
17388-39-5	Swertiamarin	386.15	
1739-00-0	N-(2-Phenylethyl)aniline	319.65	
1739-83-9	1,2,4,5-Tetramethyl-1H-imidazole	331.15	
1739-84-0	1,2-Dimethylimidazole	313.15	479.15
173903-15-6	Methyl N-(chlorocarbonyl)-N-[4-(trifluoromethoxy)phenyl]carbamate	370.15	
17394-77-3	1,3-Diethyl 2-[(1,3-benzodioxol-5-ylamino)methylene]propanedioate	375.15	
17395-31-2	4(3H)-Quinazolinone, 7-bromo-6-chloro-3-[3-(3-hydroxy-2-piperidinyl)-2-oxopropyl]-, hydrobromide (1:1)	520.15	
17397-37-4	α-Bromo-α-phenylbenzeneacetyl bromide	338.65	
17397-89-6	(+)-Cerulenin	366.65	
174-79-8	2,6-Dioxaspiro[3.3]heptane	362.65	
1740-19-8	Dehydroabietic acid	439.65	
1740-54-1	Decanediamide	476.65	
1740-57-4	1,3-Benzenedicarboxamide	428.15	
1740-97-2	Isocarvacrol	281.75	503.15
17402-80-1	3-Nitrobenzo[b]thiophene	352.15	
17403-09-7	3-(4-Piperidinyl)-1H-indole	496.15	
17405-06-0	3-Bromo-N-methyl-N-nitrosobenzenamine	322.15	
17406-45-0	Tomatine	538.65	
17407-37-3	Vitamin E succinate	342.65	
17408-16-1	1-(3-Nitrophenyl)-1-propanone	373.65	
17413-51-3	Propanoic acid, 2-(4-chlorophenoxy)-2-methyl-, 3-pyridinylmethyl ester, hydrochloride (1:1)	386.65	
17413-73-9	2-(3-Chlorophenoxy)-2-methylpropanoic acid	335.15	
17413-74-0	2-[(4-Chlorophenyl)thio]-2-methylpropanoic acid	372.15	
17413-79-5	2-(2-Chlorophenoxy)-2-methylpropionic acid	348.65	
17418-58-5	Disperse Red 60	458.15	
1742-79-6	1-(Acetyloxy)-2(1H)-pyridinone	366.65	
1742-91-2	Benzothiazolium, 3-methyl-2-[3-(3-methyl-2(3H)-benzothiazolylidene)-1-propen-1-yl]-, iodide (1:1)	553.15	
1742-95-6	4-Amino-1,8-naphthalimide	523.15	
17420-30-3	2-Cyano-4-nitroaniline	482.15	
17422-32-1	5-Chloroindole	342.65	
17422-33-2	6-Chloroindole	363.15	
17422-56-9	1,3-Diethyl 2-[(2-nitrophenyl)methylene]propanedioate	326.15	
17422-74-1	3-Formylchromone	423.15	
17425-14-8	O-Butyl N-phenylcarbamothioate	328.15	
17427-00-8	Benzenaminium, 3-(acetyloxy)-N,N,N-trimethyl-, iodide (1:1)	476.15	
1743-01-7	2-Naphthalenamine, 1,2,3,4-tetrahydro-, hydrochloride (1:1)	514.15	
17433-19-1	1,1′-(1,4-Piperazinediyl)bis[1-(3-pyridinyl)methanone]	470.65	
17433-31-7	2-Pyridinecarboxylic acid, 2-acetylhydrazide	449.4	
17438-14-1	3,5-Dimethyl 1,4-dihydro-2,6-dimethyl-3,5-pyridinedicarboxylate	505.15	
1744-22-5	Riluzole	391.15	
17440-83-4	2-Pyrazinecarboxamide, 3,5-diamino-N-(aminoiminomethyl)-6-chloro-, hydrochloride, hydrate (1:1:2)	559.65	
17448-96-3	Diethyl 2-(furan-2-ylmethylene)malonate	413.65	
174484-41-4	Tipranavir	360.65	
1745-07-9	6,7-Dimethoxy-1,2,3,4-tetrahydroisoquinoline	535.15	
1745-72-8	Dichlorodiethenylsilane		391.65
1745-77-3	2-(Phenylmethyl)quinoline	445.65	485.65
1745-81-9	2-Allylphenol	267.15	493.15
1745-87-5	4-Methyl-2-propyl-1,3-dioxane		434.15
17452-27-6	3-Pyridyl isothiocyanate	380.4	505.15
17455-13-9	18-Crown-6	312.15	
1746-01-6	2,3,7,8-Tetrachlorodibenzo-p-dioxin	578.65	
1746-11-8	2,3-Dihydro-2-methylbenzofuran		470.65
1746-13-0	Allyl phenyl ether	363.15	464.85
1746-23-2	4-tert-Butylstyrene		372.65
1746-25-4	2,4,5-Triiodo-1H-imidazole	464.65	
1746-77-6	Propan-2-yl carbamate	366.15	456.15
1746-81-2	Monolinuron	354.65	
17462-58-7	1-Methylpropyl carbonochloridate		399.15
174635-69-9	3-Methyl-2-phenyl-N-((1S)-1-phenylpropyl)quinoline-4-carboxamide	427.15	
174636-32-9	Talnetant	398.8	
17464-88-9	MX 270	363.15	
17465-86-0	γ-Cyclodextrin	573.15	
174669-74-0	2-Fluoro-3-pyridinol	398.65	
17467-15-1	3-Phenyl-1,2,4-thiadiazol-5-amine	428.15	
1747-60-0	2-Amino-6-methoxybenzothiazole	431.15	
17473-76-6	Benzoic acid, 2-(4-chlorophenyl)hydrazide	424.4	
17474-44-1	4,4′-Methylenebis[2-nitrobenzenamine]	496.15	
17477-29-1	Chlorodimethylpropylsilane		386.65
17479-19-5	Dihydroergocristine	472.15	
17479-64-0	2-Hydroxy-4-methyl-5-(1-methylethyl)benzoic acid	415.65	
1748-04-5	2′,3′,5′-Tri-O-benzoyluridine	415.65	
1748-09-0	3-Pyridinecarboxylic acid, compd. with 1-[(3,4-dimethoxyphenyl)methyl]-6,7-dimethoxyisoquinoline (1:1)	417.15	
17484-28-5	3-(1,1-Dimethylethyl)-5-methylbenzoic acid	436.65	
17484-36-5	4-Methoxy-1-methyl-2-nitrobenzene	290.15	539.65
17488-65-2	4-Phenyl-3-buten-2-ol	313.15	
17488-76-5	rel-1-Ethyl (1R,2S)-1,2-cyclohexanedicarboxylate	315.65	
17494-61-0	[(3-Phenylpropyl)sulfonyl]benzene	357.15	
17495-81-7	Nitro perchlorate	408.15	
17496-08-1	Ammonium propionate	346.15	
17496-14-9	2-Methyl-1-indanone	320.4	
17496-94-5	Tetrahydro-4-methoxy-5,5-dimethyl-2(1H)-pyrimidinone	418.15	
17498-50-9	L-Valine, hydrochloride (1:1)	502.15	
1750-12-5	4-Amino-3-hydrazino-5-mercapto-1,2,4-triazole	501.15	
1750-42-1	3-Isoxazolamine	422.15	
1750-45-4	6-Hydroxychlorzoxazone	519.15	
17505-25-8	Furamizole	497.65	
17507-05-0	1,4-Dihydro-1-phenyl-3(2H)-isoquinolinone	437.15	
17508-17-7	O-(2,4-Dinitrophenyl)hydroxylamine	384.15	
175136-34-2	3,4-Dihydro-2H-1,5-benzodioxepin-7-amine	341.15	
17518-43-3	Ethanaminium, 2-(benzoyloxy)-N,N,N-trimethyl-, iodide (1:1)	516.65	
17518-47-7	1-Naphthaleneethanethioamide	442.65	
17518-50-2	α-Phenylbenzeneethanethioamide	426.65	
1752-24-5	4,4′-Dihydroxydiphenylamine	442.15	
1752-30-3	2-(1-Methylethylidene)hydrazinecarbothioamide	452.15	
1752-40-5	2-(1-Methylpropylidene)hydrazinecarbothioamide	372.15	
1752-96-1	Nicotinanilide	398.15	
175204-32-7	2,6-Dibromo-4-chloro-3,5-dimethylphenol	431.15	
175205-50-2	1-(3,5-Dichlorophenyl)-2,5-dimethyl-1H-pyrrole	354.15	
17524-05-9	Bis(acetylacetonato)dioxomolybdenum	454.15	
17527-07-0	2-(Butylamino)ethanesulfonic acid	454.15	
175276-94-5	3-Thiopheneacetic acid hydrazide	356.65	
175277-76-6	N-(2,4-Difluorophenyl)thiourea	442.15	
1753-47-5	5-(p-Dimethylaminobenzylidene)barbituric acid	535.65	
17534-15-5	1,2-Benzenedithiol	301.65	511.65
17537-64-3	1,1′-(1H-Indole-1,3-diyl)bis[ethanone]	361.65	
1754-00-3	Isocitral		369.15
1754-47-8	Dioctyl phenylphosphonate		480.15
1754-58-1	Diamidafos	375.15	
175463-32-8	1-Pyrrolidinecarboxylic acid, 3-cyano-4-oxo-, 1,1-dimethylethyl ester	433.65	
175481-36-4	Lacosamide	415.65	
17549-30-3	Bis(diethyldithiocarbamato)lead	481.65	
1755-01-7	rel-(3aR,4S,7R,7aS)-3a,4,7,7a-Tetrahydro-4,7-methano-1H-indene	305.15	
1755-05-1	cis-Octahydropentalene		412.15
1755-51-7	Pentamethoxy Red	419.65	
1755-52-8	3-Ethyl-4-(4-methoxyphenyl)-2-methyl-3-cyclohexene-1-carboxylic acid	429.65	
17550-03-7	(17α)-3-Methoxy-19-norpregna-1,3,5(10)-trien-17-ol	359.15	
17557-67-4	6-(Methylsulfonyl)-2-benzothiazolamine	500.15	
175591-09-0	Tapentadol hydrochloride	482.65	
17560-51-9	Metolazone	529.15	
17560-54-2	2-(Acetylamino)-5-(aminosulfonyl)-4-chlorobenzoic acid	528.15	
17564-64-6	2-(Chloromethyl)-1H-isoindole-1,3(2H)-dione	426.15	
1757-18-2	Akton	301.15	
1757-42-2	3-Methylcyclopentanone	331.65	416.15
1757-72-8	1-Methyl-2-phenyl-1H-indole-3-carboxaldehyde	401.15	
1757-80-8	N,N′-1,2-Ethanediylbis[3,4,5-trimethoxybenzamide]	518.65	
17572-39-3	1,3-Diethyl 4-hydroxy-4-methyl-6-oxo-2-phenyl-1,3-cyclohexanedicarboxylate	428.15	
17573-15-8	9,10-Dihydrobenzo[a]pyrene	419.15	
17573-21-6	9-Hydroxybenzo[a]pyrene	469.15	
17573-23-8	7,8-Dihydrobenzo[a]pyrene	401.15	
17573-92-1	3-Methoxythiophene	322.65	
17575-20-1	Lanatoside A	483.65	
17575-21-2	Lanatoside B	515.65	
17575-26-7	4,5,7-Trihydroxy-2H-1-benzopyran-2-one	564.15	
17577-28-5	[(Ethoxycarbonyl)methyl]triphenylphosphonium chloride	363.15	
17579-99-6	Phosphorus(1+), methyltriphenoxy-, iodide (1:1), (T-4)-	403.15	
1758-25-4	2,5-Dimethoxyphenylacetic acid	398.15	
1758-33-4	cis-2,3-Epoxybutane	193.15	333.15
1758-61-8	Dicyclohexyl peroxide	346.65	
1758-64-1	1,6-Diamino-9,10-anthracenedione	565.15	
1758-68-5	1,2-Diaminoanthraquinone	571.15	
1758-73-2	Thiourea dioxide	403.15	
1758-74-3	N-(Aminoiminomethyl)-L-alanine	488.65	
1758-88-9	1,4-Dimethyl-2-ethylbenzene	219.45	460.05
17581-85-0	3-(4-Methoxyphenyl)-2-propen-1-ol	352.65	
17581-86-1	3-(1,3-Benzodioxol-5-yl)-2-propen-1-ol	351.55	
17584-12-2	3-Amino-5,6-dimethyl-1,2,4-triazine	483.65	
17585-69-2	L-Phenylalanine, hydrochloride (1:1)	517.65	