CAS	name	Tm	Tb
13465-84-4	Tetraiodosilane	393.65	560.65
13465-94-6	Barium nitrite	550.15	
13465-96-8	Metaphosphoric acid (HPO3), silver(1+) salt	763.15	
13465-97-9	Diphosphoric acid, silver(1+) salt (1:4)	843.15	
13466-30-3	Ethanone, 1-phenyl-, hydrazone	297.65	
13466-38-1	5-Bromo-2-hydroxypyridine	450.65	
13466-40-5	5-Phenyl-2,4-pentadienal	315.65	
13466-78-9	3-Carene		443.15
134678-17-4	Lamivudine	434.15	
13468-02-5	N,N-Dimethyl-2-phenoxyethanamine	436.65	399.15
134680-32-3	2′,3′-Dideoxy-3′-thiacytidine	444.55	
13470-06-9	Strontium nitrite	661.15	
13470-08-1	Titanium fluoride (TiF3)	573.15	
13470-11-6	Tungsten bromide (WBr5)	559.15	665.15
13470-13-8	Tungsten chloride (WCl4), (T-4)-	573.15	
13470-14-9	Tungsten chloride (WCl5)	513.15	
13472-00-9	2-(4-Aminophenyl)ethylamine	335.65	
13472-08-7	2,2′-Azobis[2-methylbutyronitrile]	323.15	
13472-30-5	Sodium silicate (Na4SiO4)	1291.15	
13472-45-2	Sodium tungsten oxide (Na2WO4)	971.15	
13472-62-3	2(1H)-Pyridinone, hydrochloride (1:1)	448.15	
13472-81-6	3,5-Dibromo-2(1H)-pyridinone	480.15	
13473-51-3	Convalloside	476.15	
13473-90-0	Aluminum nitrate	346.15	
13475-47-3	1,4-Didocosyl butanedioate	352.95	
13475-81-5	2,2,3,3-Tetramethylhexane	219.15	433.45
13475-82-6	2,2,4,6,6-Pentamethylheptane	206.15	450.95
13476-99-8	Tris(acetylacetonato)vanadium	457.15	
13477-00-4	Barium chlorate	687.15	
13477-53-7	4-Amino-2-hydroxybutanoic acid	464.65	
13478-00-7	Nickel nitrate hexahydrate	329.85	
13478-20-1	Phosphoric trifluoride	205.15	233.15
13479-54-4	Cupric glycinate	485.15	
13481-63-5	2-(2H-Tetrazol-5-yl)-N-[3-(trifluoromethyl)phenyl]benzenamine	489.15	
13481-70-4	2,6-Dichloro-3-methylphenol	301.15	510.15
13481-97-5	9-Octadecenedioic acid, 1,18-dimethyl ester	305.9	468.15
13483-03-9	2-Thiazolamine, 4,5-dihydro-, hydrobromide (1:1)	444.15	
13483-52-8	1-Amino-4-(phenylthio)-9,10-anthracenedione	474.15	
13483-58-4	N,N′-[(Methylimino)di-3,1-propanediyl]bis[octadecanamide]	370.15	
13490-36-3	3-Methyldodecanoic acid	295.15	
13491-79-7	2-tert-Butylcyclohexanol	318.15	
13492-21-2	1-Propanone, 3-(hexahydro-1H-azepin-1-yl)-1-(3-nitrophenyl)-, hydrochloride (1:1)	437.65	
13494-06-9	3,4-Dimethyl-1,2-cyclopentanedione	344.65	
13494-07-0	3,5-Dimethyl-1,2-cyclopentanedione	364.65	
13494-80-9	Tellurium	722.95	1263.05
13497-36-4	2,4,6-Triphenylphosphorin	445.65	
13497-91-1	Hypodiphosphorous tetrachloride	245.15	453.15
13498-11-8	(TB-5-12)-Tetrachlorofluorophosphorane	450.15	
13498-14-1	Diphosphoryl chloride		338.15
13499-05-3	Hafnium tetrachloride	1100.15	523.15
135-00-2	2-Benzoylthiophene	329.65	573.15
135-01-3	1,2-Diethylbenzene	241.95	457.15
135-02-4	2-Methoxybenzaldehyde	310.65	516.65
135-07-9	Methyclothiazide	498.15	
135-09-1	Hydroflumethiazide	545.65	
135-12-6	4,4′-Dichloro-2-nitrodiphenyl ether	352.15	
135-13-7	2-[(Carboxymethyl)thio]benzoic acid	488.15	
135-19-3	2-Naphthol	394.75	558.15
135-20-6	Cupferron	436.65	
135-23-9	Blue Line	435.15	
135-31-9	Pyrrolidine, 1-[4-(4-chlorophenyl)-3-phenyl-2-butenyl]-, phosphate (1:2)	402.65	
135-36-4	1-(1-Phenylpentyl) butanedioate	327.15	
135-41-1	N-(2,5-Diethoxy-4-nitrophenyl)benzamide	418.15	
135-44-4	Leucinocaine mesylate	431.15	
135-45-5	N-(2,5-Dimethoxyphenyl)benzamide	359.15	
135-48-8	Pentacene	530.15	
135-54-6	[(2,5-Dimethoxyphenyl)methyl]hydrazine	339.65	
135-57-9	N,N′-(Dithiodi-2,1-phenylene)bis[benzamide]	416.9	
135-58-0	Mesulfen	396.15	
135-61-5	3-Hydroxy-N-(2-methylphenyl)-2-naphthalenecarboxamide	465.65	
135-62-6	3-Hydroxy-N-(2-methoxyphenyl)-2-naphthalenecarboxamide	436.15	
135-64-8	3-Hydroxy-N-2-naphthalenyl-2-naphthalenecarboxamide	532.15	
135-65-9	3-Hydroxy-N-(3-nitrophenyl)-2-naphthalenecarboxamide	516.15	
135-67-1	Phenoxazine	429.15	
135-68-2	4′-Chloro[1,1′-biphenyl]-4-amine	407.15	
135-69-3	1-(4′-Nitro[1,1′-biphenyl]-4-yl)ethanone	425.15	
135-70-6	p-Quaterphenyl	593.15	
135-73-9	1-[1,1′-Biphenyl]-4-yl-2-bromoethanone	399.65	
135-76-2	Sodium 6-hydroxy-2-naphthalenesulfonate	396.15	
135-77-3	1,2,4-Trimethoxybenzene		520.15
135-85-3	[(3,4-Dimethoxyphenyl)methyl]hydrazine	306.15	
135-87-5	Piperidine, 1-[(2,3-dihydro-1,4-benzodioxin-2-yl)methyl]-, hydrochloride (1:1)	503.15	
135-88-6	N-Phenyl-2-naphthylamine	381.15	668.65
135-91-1	4,4′-Methylenebis[N,N-diethylbenzenamine]	316.9	
135-92-2	N-(2-Methoxyphenyl)urea	543.15	
135-97-7	Pseudotropine	382.15	514.15
135-98-8	sec-Butylbenzene	190.45	446.65
13501-04-7	2-Naphthalenecarboxylic acid, 3-hydroxy-, compd. with N,N-dibutyl-4-(hexyloxy)-1-naphthalenecarboximidamide (1:1)	442.65	
13501-67-2	N-(4-Methoxyphenyl)anthranilic acid	459.15	
13504-15-9	(16β)-17,21-Dihydroxy-16-methylpregna-1,4,9(11)-triene-3,20-dione	483.65	
13505-34-5	2,6-Heptanedione	304.15	
135050-44-1	3-Chloro-4-iodobenzenamine	338.15	
13506-76-8	2-Methyl-6-nitrobenzoic acid	425.15	
135062-02-1	Repaglinide	405.15	
13508-53-7	(Chloromethyl)ethoxydimethylsilane		405.65
13509-38-1	S-Methyl N-phenylcarbamothioate	353.15	
13509-52-9	1,3,6-Trimethyl-2,4(1H,3H)-pyrimidinedione	382.15	
13510-35-5	Indium triiodide	471.15	
13510-49-1	Beryllium sulfate	823.15	
13511-38-1	3-Chloro-2,2-dimethylpropanoic acid	314.65	
13512-59-9	N-[(1,1-Dimethylethoxy)carbonyl]-O-(phenylmethyl)-L-tyrosine 4-nitrophenyl ester	418.65	
13513-82-1	2-Methoxy-α-methylbenzenemethanol	188.05	398.15
13513-93-4	3,4,5-Trimethoxybenzoic acid 2-[(4-methylphenyl)sulfonyl]hydrazide	519.9	
13514-03-9	(3-endo)-3-Chloro-8-methyl-8-azabicyclo[3.2.1]octane	286.15	
13515-97-4	Alanine, methyl ester, hydrochloride (1:1)	429.15	
135158-54-2	Acibenzolar-S-methyl	406.05	540.15
13517-10-7	Boron triiodide	2866.15	
13517-13-0	1,1,1,2,2,2-Hexabromodisilane	368.15	538.15
13519-90-9	4-Fluoro-1,3-benzenedicarbonitrile	356.15	
13520-68-8	Nitric acid, iron(2+) salt, hydrate (2:1:6)	333.65	
13520-76-8	Tungsten chloride oxide (WCl2O2), (T-4)-		500.15
13520-78-0	Tungsten chloride oxide (WCl4O)	482.15	505.15
13522-14-0	(2β,3α,5α,16β)-3-Hydroxy-2,16-di-1-piperidinylandrostan-17-one	455.15	
13522-16-2	(2β,3α,5α,16β,17β)-2,16-Di-1-piperidinylandrostane-3,17-diol	430.15	
13523-86-9	Pindolol	445.15	
13528-88-6	1,1,2-Trichloro-1,2,2-trimethyldisilane		1829.65
13528-93-3	1,1′-(1,2-Ethanediyl)bis[1-chloro-1,1-dimethylsilane]	310.65	471.65
135285-90-4	Hexanitrohexaazaisowurtzitane	523.15	
13529-27-6	2-Furaldehyde, diethyl acetal		464.65
13529-74-3	Perchloric acid, indium(3+) salt	353.15	
13530-65-9	Zinc chromate	589.15	
13531-48-1	Benzoic acid, 3-cyano-, methyl ester	312.15	
13534-97-9	5-Amino-2-bromopyridine	350.15	
13534-99-1	2-Amino-3-bromopyridine	338.65	
13536-73-7	Erbium bromide (ErBr3)	1223.15	
13536-84-0	Uranyl fluoride	573.15	
13537-18-3	Thulium trichloride	1094.15	1761.15
13537-82-1	Ethyl 4-methyl-2-oxocyclohexanecarboxylate	326.65	
13539-27-0	8-Hydroxygenistein	603.15	
13539-59-8	Azapropazone	520.15	
135410-20-7	Acetamiprid	372.05	
13544-06-4	2-Nitro-4-(trifluoromethyl)benzeneacetonitrile	310.65	409.15
13544-07-5	Methyl 2-nitro-4-(trifluoromethyl)benzeneacetate	380.15	
13545-04-5	2,3-Dimethylsuccinic acid	405.15	
13547-17-6	Methylenediurea	476.15	
13547-70-1	1-Chloropinacolone	393.15	333.65
1355-31-3	Aspidospermidine-3-carboxylic acid, 4-(acetyloxy)-6,7-didehydro-15-[(9S)-3-formyl-5-ethyl-1,2,3,6,7,8,9,10-octahydro-9-(methoxycarbonyl)azacycloundecino[5,4-b]indol-9-yl]-3-hydroxy-16-methoxy-1-methyl-, methyl ester, (2β,3β,4β,5α,12R,19α)-	546.15	
13550-52-2	Dysprosium tungsten oxide (Dy2W3O12)	1611.15	
13551-86-5	1-(3-Chloro-2-hydroxypropyl)-2-nitroimidazole	430.15	
13551-87-6	Misonidazole	383.65	
13551-91-2	α-Methyl-2-nitro-1H-imidazole-1-ethanol	393.4	
13551-92-3	Desmethylmisonidazole	439.15	
13552-09-5	2-Amino-1,3-octadecanediol	361.65	
13552-21-1	1-Amino-2-butanol	276.15	442.15
13552-44-8	Benzenamine, 4,4′-methylenebis-, hydrochloride (1:2)	561.15	
13553-19-0	rel-(1R,2R)-1,2-Cycloheptanediol	337.65	
13553-79-2	Rifamycin S	454.15	
13556-84-8	Diazene, 1,2-bis(2-chlorophenyl)-, 1-oxide	329.15	
13559-66-5	Camphor, oxime	388.15	
135590-91-9	Mefenpyr-diethyl	324.15	
13560-49-1	2-Butenoic acid, 3-amino-, 1,1′-(thiodi-2,1-ethanediyl) ester	363.65	
135616-36-3	2,2′-[(1S,2S)-1,2-Cyclohexanediylbis[(E)-nitrilomethylidyne]]bis[4,6-bis(1,1-dimethylethyl)phenol	479.65	
13562-21-5	Benzenemethanol, α-cyclohexyl-α-[2-(diethylamino)ethyl]-, hydrochloride (1:1)	457.65	
13563-04-7	2-Hydroxy-N-2-pyridinylbenzamide	476.15	
13565-96-3	Bismuth molybdenum oxide (Bi2MoO6)	1209.15	
13566-07-9	Scandium vanadium oxide (ScVO4)	1670.15	
13566-12-6	Yttrium vanadate	2083.15	
13567-44-7	5-Neocedranol	357.15	
13568-33-7	Lithium nitrite	491.15	
13568-40-6	Lithium molybdate (Li2MoO4)	973.15	
13568-77-9	1,4-Dihydro-1,3,6-trimethylpyrazolo[3,4-b][1,4]thiazin-5(6H)-one	425.15	
13569-38-5	Isopropyl-o-carborane	256.25	
13569-59-0	Niobium chloride (NbCl3)	476.15	
13569-62-5	Plutonium chloride (PuCl3)	1033.15	
13569-65-8	Rhodium trichloride trihydrate	373.15	
13569-71-6	Rhenium chloride (ReCl4)	623.15	
13569-80-7	Dysprosium fluoride (DyF3)	1427.15	
1357-76-2	Ignavine	446.15	
13570-08-6	1H-Benzimidazole-2-acetic acid	389.15	
13572-98-0	Gadolinium iodide (GdI3)	899.15	
13573-08-5	Germanium iodide (GeI2)	733.15	
13573-98-3	4-Pyridinecarboxylic acid, 2-(sulfinomethyl)hydrazide, sodium salt (1:1)	518.15	
13574-14-6	2-(Dimethylamino)-N,N-dimethylacetamide	435.65	470.15
13574-84-0	L-Glutamic acid, N-[(1,1-dimethylethoxy)carbonyl]-, 5-(phenylmethyl) ester, compd. with N-cyclohexylcyclohexanamine (1:1)	410.65	
13575-60-5	Carbamodithioic acid, N,N-diethyl-, C,C′-[carbonylbis(iminomethylene)] ester	380.65	
13578-25-1	N-(4-Chlorophenyl)-N,N′-dimethylurea	443.8	
13581-52-7	4,5,6,7-Tetrahydro-2-imino-α-[4-(methylsulfonyl)phenyl]-3(2H)-benzothiazoleethanol	432.65	
13582-93-9	3,4-Dihydro-2H-1,4-benzoxazine-2-carboxamide	419.65	
135832-47-2	4-[3-(Acetyloxy)propyl]benzenesulfonamide	360.65	
13586-68-0	Dehydrolysmeral	340.15	
135861-56-2	Bis(3,4-dimethylbenzylidene) sorbitol	540.65	
13587-51-4	Silane-d	336.15	
13587-57-0	N-(3-Methylphenyl)benzenesulfonamide	407.15	
13589-77-0	5-Amino-2-phenyl-3(2H)-pyridazinone	483.15	
13590-42-6	Phenylmethyl (4S)-2,5-dioxo-4-oxazolidineacetate	394.15	
13593-03-8	Quinalphos	304.65	415.15
13595-25-0	Bisphenol M	412.15	
13595-82-9	Aluminum fluoride (AlF)		1073.15
13596-35-5	Rhenium pentachloride	493.15	
13597-19-8	Cerium vanadium oxide (CeVO4)	1373.15	
13597-20-1	Niobium chloride oxide (NbCl3O), (T-4)-	701.15	
13597-45-0	Vanadate (VO31-), rubidium (1:1)	843.15	
13597-56-3	Zinc tungstate (ZnWO4)	1493.15	
13597-64-3	Molybdate (MoO42-), cesium (1:2), (T-4)-	1213.15	
13597-73-4	Disiloxane	129.15	257.95
13597-99-4	Nitric acid, beryllium salt (2:1)	333.65	
13598-36-2	Phosphonic acid	346.15	
13598-42-0	Silane, iodo-	216.65	318.95
136-23-2	Zinc dibutyldithiocarbamate	379.15	
136-25-4	2-(2,4,5-Trichlorophenoxy)ethyl 2,2-dichloropropionate	322.65	435.65
136-35-6	Diazoaminobenzene	371.15	311.15
136-36-7	Resorcinol, monobenzoate	405.15	
136-44-7	Glyceryl p-aminobenzoate	389.65	
136-46-9	Benzoic acid, 4-ethoxy-, 2-(diethylamino)ethyl ester, hydrochloride (1:1)	446.15	
136-47-0	Tetracaine hydrochloride	420.15	
136-60-7	Butyl benzoate	251.15	523.15
136-64-1	Terephthalic dihydrazide	593.15	
136-69-6	1,2-Benzenediol, 4-[2-[[2-(1,3-benzodioxol-5-yl)-1-methylethyl]amino]-1-hydroxyethyl]-, hydrochloride (1:1)	399.65	
136-70-9	Protokylol	399.65	
136-72-1	Piperic acid	474.15	
136-77-6	Hexylresorcinol	341.4	
136-78-7	Disul-sodium	518.15	
136-79-8	2-Ethoxy-5-nitrobenzenamine	369.65	
136-80-1	2-[(2-Methylphenyl)amino]ethanol		558.65
136-81-2	2-Pentylphenol		396.15
136-83-4	2-Nonylphenol	292.65	449.65
136-84-5	Dimethylolethyleneurea	372.15	
136-90-3	4-Methoxy-3-methylaniline	365.65	
136-95-8	2-Aminobenzothiazole	405.15	
136-96-9	Diamthazole dihydrochloride	514.65	
136-99-2	4,5-Dihydro-2-undecyl-1H-imidazole-1-ethanol	330.15	
1360-76-5	Ranaconitine	406.15	
13601-24-6	(OC-6-21)-Pentacarbonylmethylmanganese	368.15	
13601-88-2	Dehydroabietal	327.15	
13601-94-0	2,2,3-Trichloropropanamide	330.15	
13602-12-5	Isonicotinic acid N-oxide	543.65	
13602-13-6	1,2-Dichloro-2-butene		403.65
13602-48-7	N-(Tetrahydro-2-oxo-3-furanyl)benzamide	408.15	
13602-52-3	Quinomycin B	494.15	
13603-07-1	3-Methyl-1-nitrosopiperidine	375.15	
13603-10-6	3-Ethylpiperidine	422.15	
13603-25-3	3-Benzylpiperidine	463.15	
13603-44-6	2,6-Dimethyl-4-pyridinol	498.15	
13603-70-8	Dioctyl disulfone	362.4	
13604-44-9	4,4′-Thiobis[N,N-dimethylbenzenamine]	399.65	
13606-94-5	N-2-Pyridinylpropanamide	335.15	
13608-87-2	1-(2,3,4-Trichlorophenyl)ethanone	338.9	
13609-67-1	Hydrocortisone butyrate	491.65	
1361-49-5	Benzenepropanoic acid, β-(dimethylamino)-α-hydroxy-, (1S,2R,3E,5S,7S,8S,10R,13S)-2,13-bis(acetyloxy)-7,10-dihydroxy-8,12,15,15-tetramethyl-9-oxotricyclo[9.3.1.14,8]hexadeca-3,11-dien-5-yl ester, (αR,βS)-	478.15	
13610-02-1	(2-Propyn-1-yloxy)benzene	546.15	
13611-97-7	17α-Ethynyl-17-hydroxy-5α-androstan-3-one	561.55	
13612-34-5	2,5-Dimethylbenzeneacetic acid	401.15	
13614-98-7	Minocycline hydrochloride	431.15	
13615-40-2	3-Methyl-1-naphthol	363.65	
13616-82-5	2,4-Dimethylbenzenethiol	365.15	477.65
13616-83-6	Bis(2,4-dimethylphenyl) disulfide	538.15	
136191-64-5	Methyl 2-[(4,6-dimethoxy-2-pyrimidinyl)oxy]-6-[1-(methoxyimino)ethyl]benzoate	380.15	
13621-25-5	3,4-Dihydro-5,7-dimethyl-1(2H)-naphthalenone	323.15	
13621-47-1	N-Methylcarbonocyanidothioic amide	310.65	
13623-10-4	5,6,7,8-Tetrahydro-1,4-naphthalenediol	449.65	
13623-11-5	2,4,5-Trimethylthiazole	487.15	438.15
13623-25-1	6-Methoxy-1-indanone	382.15	
13623-57-9	2-(1-Naphthalenyl)-2-imidazoline	407.15	
13623-94-4	1,1-Bis(methylthio)-2-nitroethylene	398.65	
136236-51-6	Rasagiline	421.15	
13625-51-9	4-Methyl-1,2,4-triazolidine-3,5-dithione	523.15	
13629-22-6	9H-Fluoren-9-one, hydrazone	422.15	
13631-21-5	4-Bromo-3-chlorophenol	336.15	
13631-64-6	4-Thiazolecarboximidamide, N-phenyl-, hydrochloride (1:?)	529.15	
13632-07-0	5-(Acetylamino)-2-methylbenzenesulfonyl chloride	395.15	
13636-02-7	N,N-Dimethyl-3-(2-thienyl)-3-hydroxypropanamine	343.15	
13636-10-7	Benzeneethanamine, N,N-dimethyl-β-phenyl-, hydrochloride (1:1)	475.15	
13636-18-5	Phenoxan	477.65	
13636-32-3	N′-(3-Chlorophenyl)-N,N-dimethylguanidine	369.65	
13637-38-2	1,3-Dihydro-1-methyl-2H-indole-2-thione	382.65	
13637-63-3	Chlorine fluoride (ClF5)		260.25
13637-68-8	Molybdenum chloride oxide (MoCl2O2), (T-4)-	571.15	
13637-83-7	Chloryl fluoride ((ClO2)F)	158.15	267.15
13637-84-8	Sulfuryl chloride fluoride	148.45	280.25
13637-87-1	Nitrogen chloride fluoride (NClF2)		206.15
13639-50-4	β-D-Glucopyranose, 1-thio-, 1,2,3,4,6-pentaacetate	394.15	
13640-28-3	Pilosine	460.15	
136426-54-5	Fluquinconazole	465.15	
136434-34-9	Duloxetine hydrochloride	441.15	
13645-74-4	4,5-Dibromo-2-methyl-3(2H)-pyridazinone	393.15	
136465-81-1	(3S,4aS,8aS)-N-(1,1-Dimethylethyl)decahydro-3-isoquinolinecarboxamide	385.15	
13647-35-3	Trilostane	537.15	
13651-14-4	2,3-Dimethylbenzenemethanol	337.15	398.15
13654-09-6	Decabromobiphenyl	648.15	
13655-52-2	Alprenolol	381.15	
13656-78-5	Pregn-9(11)-ene-3,20-dione, 17-hydroxy-16-methyl-, (5β,16β)-	455.65	
13657-24-4	1H-Azepine, 1-(3,3-diphenylpropyl)hexahydro-, hydrochloride (1:1)	463.65	
13657-68-6	(+)-Curdione	334.9	
136572-09-3	Irinotecan hydrochloride trihydrate	529.65	
13662-06-1	1-(2-Naphthalenyloxy)-2-propanone	351.15	
13663-07-5	Ethanamine, 2-[(4-chlorophenyl)thio]-N,N-diethyl-, hydrochloride (1:1)	383.15	
13663-23-5	1-(4-Nitrophenyl)azepane	348.15	
13665-88-8	Mopidamol	430.65	
13669-42-6	3-Quinolinecarboxaldehyde	393.15	
13670-31-0	4,5-Dihydro-β-methyl-2-oxazoleethanol		335.15
13670-39-8	1-(4,5-Dihydro-2-oxazolyl)-2-propanone	388.65	
13672-07-6	2-Bromo-1-tetralone	313.65	
13673-51-3	L-Glutamine, N2-[(phenylmethoxy)carbonyl]-, pentachlorophenyl ester	453.15	
13673-54-6	L-Cysteine, N-[(phenylmethoxy)carbonyl]-S-(phenylmethyl)-, pentachlorophenyl ester	442.15	
13673-63-7	3-Methyl-3H-benzoxazole-2-thione	405.15	
13674-84-5	Tris(2-chloroisopropyl) phosphate	233.15	
13674-87-8	Tris(1,3-dichloro-2-propyl) phosphate	300.15	
13675-92-8	6-Nitroquinoline N-oxide	494.15	
13676-02-3	2-Chloro-6-methoxyquinoline	380.65	
13676-54-5	Bismaleimidodiphenylmethane	405.65	
13676-82-9	4,4′-Isopropylidenebis[2,6-di-tert-butylphenol]	427.4	
13676-91-0	Solvent Yellow 163	460.15	
13677-79-7	3,4,5-Trihydroxybenzaldehyde	485.15	
13678-51-8	2-(2-Furanylmethyl)-5-methylfuran	362.65	
13678-69-8	1-(2-Thienyl)-1,2-propanedione	319.65	
13679-46-4	2-(Methoxymethyl)furan	370.15	405.15
13679-70-4	5-Methyl-2-thiophenecarboxaldehyde	458.15	
13679-74-8	2-Acetyl-5-methylthiophene	300.65	505.65
13680-35-8	4,4′-Methylenebis[2,6-diethylaniline]	362.15	
13680-36-9	4,4′-Methylenebis[2-(1,1-dimethylethyl)-6-methylbenzenamine]	402.15	
13681-75-9	2,4,6-Tris(2-hydroxy-4-octyloxyphenyl)-1,3,5-triazine	419.15	
13681-87-3	Bis(diethyldithiocarbamato)copper	463.15	
136817-59-9	Delavirdine	500.15	
13682-32-1	4-Methyl-2-phenyl-1H-imidazole-5-methanol	477.15	
13682-99-0	Dichloromethylpentylsilane		443.15
13683-89-1	Methyl N-(3-hydroxyphenyl)carbamate	368.15	
13684-56-5	Desmedipham	393.15	
13684-63-4	Phenmedipham	416.15	
136849-15-5	Cyclosulfamuron	435.05	
13686-66-3	N,N-Diethyl-1,1-dimethylsilanamine		385.4
13686-87-8	Pyridinium, 2-methyl-1-(phenylmethyl)-, chloride (1:1)	404.65	
13689-19-5	Tricyclohexylphosphine oxide	429.15	
13689-20-8	Cyclohexyldiphenylphosphine oxide	438.65	
13693-05-5	Platinum fluoride (PtF6), (OC-6-11)-	334.45	342.29
13693-06-6	Plutonium fluoride (PuF6), (OC-6-11)-	323.9	338.15
13693-09-9	Xenon hexafluoride		348.72
13693-59-9	2,2′-Thiobis[phenol]	368.15	
13698-49-2	Delmadinone acetate	441.15	
137-00-8	4-Methyl-5-(2-hydroxyethyl)thiazole		408.15
137-04-2	Benzenamine, 2-chloro-, hydrochloride (1:1)	508.15	
137-05-3	Methyl cyanoacrylate	233.15	
137-06-4	2-Methylbenzenethiol	288.15	468.15
137-07-5	2-Aminothiophenol	299.15	507.15
137-08-6	Calcium pantothenate	468.65	
137-09-7	Dianol	478.15	
137-17-7	2,4,5-Trimethylaniline	341.15	507.65
137-18-8	2,5-Dimethyl-p-benzoquinone	397.4	347.65
137-19-9	4,6-Dichlororesorcinol	386.15	527.15
137-26-8	Tetramethylthiuram disulfide	428.65	
137-29-1	Copper dimethyldithiocarbamate	533.15	
137-30-4	Ziram	519.15	
137-32-6	2-Methyl-1-butanol	203.15	401.15
137-40-6	Sodium propionate	571.15	
137-43-9	Cyclopentyl bromide		410.65
137-47-3	4-Chloro-N,N-dimethyl-3-nitrobenzenesulfonamide	372.65	
137-48-4	4-Chloro-N-methyl-3-nitrobenzenesulfonamide	335.15	
137-58-6	Lidocaine	341.65	
137-64-4	2-Chloro-5-(chlorosulfonyl)benzoic acid	334.65	
137-65-5	2-Amino-5-(aminosulfonyl)benzoic acid	519.15	
137-66-6	Ascorbyl palmitate	389.15	
137-86-0	Octotiamine	380.65	
137-88-2	Amprolium hydrochloride	519.65	
137-97-3	N,N′-Bis(2-methylphenyl)thiourea	434.15	
13702-09-5	3,3′-Thiobis[1-propyne]	277.15	
13705-05-0	2,4-Dichloro-6-(methylthio)-1,3,5-triazine	331.15	
13706-09-7	Phosphorothioic bromide difluoride		308.65
13706-10-0	Phosphorothioic dibromide fluoride		398.45
13706-86-0	5-methyl-2,3-hexanedione		411.15
13706-89-3	3,4-Heptanedione		421.15
13707-88-5	Alprenolol hydrochloride	381.15	
137071-32-0	(-)-Pimecrolimus	408.65	
13708-12-8	5-Methylquinoxaline	293.65	393.15
13709-31-4	Vanadium, trifluorooxo-, (T-4)-	573.15	753.15
13709-36-9	Xenon difluoride	409.15	
13709-38-1	Lanthanum trifluoride	1766.15	
13709-42-7	Neodymium fluoride (NdF3)	1683.15	
13709-46-1	Praseodymium fluoride	1643.15	
13709-47-2	Scandium fluoride	1803.15	
13709-49-4	Yttrium fluoride	1416.15	
13709-52-9	Hafnium tetrafluoride	1035.15	
13709-59-6	Thorium fluoride (ThF4), (T-4)-	800.15	
13709-61-0	Xenon tetrafluoride	408.15	
13710-19-5	Tolfenamic acid	480.4	
13716-12-6	Tri-tert-butylphosphine	294.15	
13717-00-5	Magnesite	2473.15	
13718-22-4	Molybdate (MoO42-), rubidium (1:2), (T-4)-	1203.15	
13718-26-8	Sodium metavanadate	903.15	
13718-30-4	Magnesium potassium phosphate	1793.15	
13720-12-2	Dihydro-γ-ionone	384.65	
13720-13-3	α,2,2-Trimethyl-6-methylenecyclohexanepropanol	396.15	
13721-17-0	1-Benzoyl-1,2-dihydro-2-quinolinecarbonitrile	427.65	
137225-59-3	Dihydrokaempferide	478.65	
13726-52-8	1,5-Diethyl N-(4-aminobenzoyl)-L-glutamate	416.65	
13726-67-5	N-tert-Butoxycarbonyl-L-aspartic acid	448.65	