CAS	name	Tm	Tb
12107-76-5	1-Butanamine, N-butyl-, tetrafluoroborate(1-) (1:1)	485.95	
12108-04-2	Tetracarbonyl(η5-2,4-cyclopentadien-1-yl)vanadium	411.65	
12108-13-3	Methylcyclopentadienylmanganese tricarbonyl	275.35	506.15
12108-14-4	Tricarbonyl[(1,2,3,4,5-η)-2,4-cyclohexadien-1-yl]manganese	351.15	
12109-64-7	Bis(η5-2,4-cyclopentadien-1-yl)bis(thiocyanato-κN)titanium	579.15	
12109-71-6	Bis(methylcyclopentadienyl)zirconium dichloride	455.15	
1211-08-1	2-(2H-Benzotriazol-2-yl)benzenamine	413.15	
1211-19-4	2-(Phenylamino)benzamide	395.15	
1211-28-5	Prolintane hydrochloride	406.65	
1211-40-1	4-Amino-4′-nitrobiphenyl	473.65	
121112-81-0	Ethyl 4-[2-(difluoromethoxy)phenyl]-1,2,3,4-tetrahydro-6-methyl-1-phenyl-2-thioxo-5-pyrimidinecarboxylate	420.65	
12112-67-3	Di-μ-chlorobis[(1,2,5,6-η)-1,5-cyclooctadiene]diiridium	474.15	
12116-44-8	Tricarbonyl[(1,2,3,4,5,6-η)-methoxybenzene]chromium	359.65	
12116-66-4	Hafnocene dichloride	504.65	
121177-93-3	(Methacryloxymethyl)methyldimethoxysilane		478.15
1212-08-4	S-Phenyl benzenesulfonothioate	318.15	
1212-29-9	Dicyclohexylthiourea	453.65	
1212-30-2	N,N′-Di-2-pyridinylthiourea	425.15	
1212-37-9	Benzenaminium, 3-[[(dimethylamino)carbonyl]oxy]-N,N,N-trimethyl-, iodide (1:1)	440.15	
1212-48-2	1H-Benzimidazole, 2-(phenylmethyl)-, hydrochloride (1:1)	448.15	
1212-53-9	Glycine, N-[(phenylmethoxy)carbonyl]-, methyl ester	384.65	
12122-67-7	Zineb	430.15	
121239-75-6	p-(Octyloxyphenyl)phenyliodonium hexafluoroantimonate	330.65	
121246-28-4	N2,N4,N6-Tris[4-[(1,4-dimethylpentyl)amino]phenyl]-1,3,5-triazine-2,4,6-triamine	403.15	
12125-02-9	Ammonium chloride	611.15	793.15
12125-09-6	Phosphonium iodide ((PH4)I)	455.65	
12125-72-3	Tricarbonyl[(1,2,3,4,5,6-η)-1,3,5-cycloheptatriene]chromium	363.15	
12126-50-0	Decamethylferrocene	550.65	
121268-17-5	Alendronate monosodium trihydrate	525.15	
12129-06-5	(Pentamethylcyclopentadienyl)titanium trichloride	498.15	
12129-27-0	Tricarbonyl[(1,2,3,4,5,6-η)-1,4-dimethylbenzene]chromium	371.65	
12129-67-8	Tricarbonyl[(1,2,3,4,5,6-η)-1,3,5-trimethylbenzene]chromium	435.65	
1213-06-5	Ethebenecid	466.15	
121306-60-3	(4,5-Dihydro-5-phenyl-1H-pyrazol-1-yl)-4-pyridinylmethanone	415.65	
12135-76-1	Ammonium sulfide		313.15
12136-45-7	Potassium oxide	623.15	
12136-58-2	Lithium sulfide	1210.65	
12136-59-3	Lithium telluride (Li2Te)	1477.65	
12136-60-6	Lithium selenide (Li2Se)	1575.15	
12136-78-6	Molybdenum silicide (MoSi2)	2203.15	
121361-56-6	1-(2,4-Dihydroxyphenyl)-2-(4-fluorophenoxy)ethanone	438.15	
12137-20-1	Titanium monoxide	2023.15	
1214-27-3	1-Naphthalenemethanamine, N-(2-bromoethyl)-N-ethyl-, hydrobromide (1:1)	440.15	
1214-32-0	7-Nitro-9H-fluoren-2-amine	494.15	
1214-39-7	Benzylaminopurine	506.15	
1214-47-7	2′-Hydroxychalcone	362.15	
12141-45-6	Sillimanite	2089.15	
121412-39-3	1,2-Naphthalenediol, 4-(cyclohexylmethylamino)-, 1,2-diacetate	377.15	
12142-92-6	Nickel, compd. with zirconium (1:2)	1472.15	
12143-78-1	Vanadium silicide (V5Si3)	2283.15	
12148-49-1	Bis(indenyl)zirconium dichloride	383.45	
1215-07-2	α-Nitrostilbene	346.9	
1215-59-4	5-Benzyloxyindole	369.65	
1215-83-4	Clobutinol hydrochloride	442.65	
12152-94-2	Ferroceneboronic acid	411.15	
12153-89-8	(Methoxymethyl)ferrocene	343.65	
12154-84-6	[(1,2,5,6-η)-1,5-Cyclooctadiene](2,4-pentanedionato-κO2,κO4)iridium	428.15	
12154-95-9	Iron, di-μ-carbonyldicarbonylbis(η5-2,4-cyclopentadien-1-yl)di-, (Fe-Fe)	468.15	
121552-61-2	Cyprodinil	349.05	
12156-33-1	Azulenylium, 1-[3-(1-azulenyl)-2-hydroxy-4-oxo-2-cyclobuten-1-ylidene]-1,?-dihydro-, inner salt	513.15	
1216-42-8	Damsin	375.15	
1216-84-8	Decahydro-3a,6,6,9a-tetramethylnaphtho[2,1-b]furan-2(1H)-one	365.65	
12160-12-2	Iron, compd. with zirconium (1:2)	1048.15	
121602-93-5	3,4,5-Trifluorobenzoic acid	371.15	
12163-59-6	Manganese silicide (Mn3Si)	1616.15	
121679-13-8	Naratriptan	443.65	
12168-52-4	Ilmenite (FeTiO3)	1640.15	
1217-44-3	1,2,3,4,5,6-Benzenehexacarbonitrile	583.15	
1217-45-4	9,10-Dicyanoanthracene	602.15	
1217-67-0	2-[2,3-Dichloro-4-(1-oxobutyl)phenoxy]acetic acid	383.65	
12170-92-2	Nickel, di-μ-carbonylbis(η5-2,4-cyclopentadien-1-yl)di-, (Ni-Ni)	416.15	
121748-25-2	Artobiloxanthone	432.15	
121748-26-3	Cycloartobiloxanthone	557.65	
121776-33-8	Furilazole	370.15	
1217863-38-1	2-[Dimethyl(4-methylphenyl)silyl]benzenemethanol	329.2	
1218-24-2	5′-Chloro-2′-hydroxychalcone	382.65	
1218-34-4	Acetyl-L-tryptophan	458.65	
1218-65-1	Bicyclo[2.2.1]hept-5-ene-2-carboxylic acid, bicyclo[2.2.1]hept-5-en-2-ylmethyl ester	313.15	
1218-72-0	Ethyl N-[2-[[(2-hydroxyethyl)amino]carbonyl]phenyl]carbamate	378.65	
12180-80-2	1,1′-Dibenzoylferrocene	378.65	
121808-62-6	Pidotimod	469.15	
12182-58-0	Cerium, compd. with iron (2:17)	1336.15	
12183-14-1	Iron, compd. with praseodymium (17:2)	1381.15	
12183-15-2	Iron, compd. with samarium (17:2)	1553.15	
12185-10-3	Tetraphosphorus	317.92	553.15
1219-20-1	1,2,4-Oxadiazole-5-ethanamine, N,N-diethyl-3-phenyl-, hydrochloride (1:1)	426.65	
1219-36-9	1-Butanone, 1-(4-fluorophenyl)-4-(1-piperidinyl)-, hydrochloride (1:1)	450.65	
1219-38-1	Octyl p-hydroxybenzoate	323.15	
1219-47-2	Benzamide, N-[4-(diethylamino)-2-butyn-1-yl]-, hydrochloride (1:1)	394.15	
1219-77-8	Ujothion	425.15	
12191-06-9	Cesium telluride (Cs2Te)	1094.15	
121961-22-6	Loracarbef monohydrate	508.15	
122-00-9	p-Methylacetophenone	301.15	499.15
122-01-0	4-Chlorobenzoyl chloride	289.15	495.15
122-03-2	Cuminaldehyde	370.15	508.65
122-04-3	4-Nitrobenzoyl chloride	348.15	
122-07-6	(Methylamino)acetaldehyde dimethyl acetal		413.15
122-11-2	Sulfadimethoxine	476.65	
122-14-5	Fenitrothion	276.55	
122-15-6	Dimetan	318.65	448.15
122-16-7	Sulfanitran	513.15	
122-18-9	Benzylhexadecyldimethylammonium chloride	332.15	
122-19-0	Stearyldimethylbenzylammonium chloride	330.15	
122-20-3	Triisopropanolamine	318.15	579.15
122-25-8	5,5′-Methylenedisalicylic acid	516.65	
122-27-0	3-Methylphenyl benzeneacetate	323.15	
122-28-1	N-(3-Nitrophenyl)acetamide	428.15	373.15
122-32-7	Triolein	241.15	510.65
122-34-9	Simazine	499.15	
122-35-0	2-Phenoxypropanoyl chloride		420.15
122-36-1	N1,N2-Dicyclohexylethanedithioamide	419.15	
122-37-2	4-Hydroxydiphenylamine	346.15	603.15
122-39-4	Diphenylamine	326.65	575.15
122-40-7	Amylcinnamaldehyde	353.15	
122-42-9	Propham	363.15	
122-45-2	Octyl phenylacetate	324.65	
122-46-3	3-Methylphenyl acetate	285.15	485.15
122-47-4	1,2-Dimethoxy-4-(2-nitro-1-propen-1-yl)benzene	346.15	
122-48-5	Zingerone	313.65	
122-51-0	Triethyl orthoformate		416.15
122-52-1	Triethyl phosphite	161.15	431.05
122-56-5	Tributylborane		482.15
122-57-6	4-Phenyl-3-buten-2-one	314.65	534.15
122-59-8	Phenoxyacetic acid	371.65	558.15
122-60-1	Phenyl glycidyl ether	276.65	518.15
122-62-3	Bis(2-ethylhexyl) sebacate	225.15	
122-63-4	Benzyl propionate		493.15
122-64-5	Mercury, (2-hydroxypropanoato)phenyl-	433.65	
122-65-6	N1,N2-Bis(phenylmethyl)ethanedithioamide	393.15	
122-66-7	Hydrazobenzene	404.15	566.15
122-69-0	Cinnamyl cinnamate	317.15	643.15
122-70-3	Phenylethyl propionate		511.15
122-73-6	Benzyl isopentyl ether		510.15
122-75-8	1,2-Ethanediamine, N1,N2-bis(phenylmethyl)-, acetate (1:2)	384.15	
122-78-1	Phenylacetaldehyde	306.65	468.15
122-79-2	Phenyl acetate	243.15	469.15
122-80-5	N-(4-Aminophenyl)acetamide	439.65	540.15
122-82-7	N-(4-Ethoxyphenyl)-3-oxobutanamide	377.65	
122-84-9	4-Methoxyphenylacetone		541.15
122-85-0	4-Acetamidobenzaldehyde	430.15	
122-87-2	p-Hydroxyphenylglycine	519.15	
122-88-3	(4-Chlorophenoxy)acetic acid	429.65	
122-91-8	4-Methoxybenzyl formate		373.15
122-94-1	4-Butoxyphenol	338.65	
122-95-2	1,4-Diethoxybenzene	345.15	519.15
122-96-3	1,4-Piperazinediethanol	407.65	490.65
122-97-4	Benzenepropanol		508.15
122-98-5	N-(2-Hydroxyethyl)aniline	284.15	552.65
122-99-6	Phenoxyethanol	287.15	518.35
1220-00-4	N,N′-Bis(4-chlorophenyl)thiourea	440.15	
1220-83-3	Sulfamonomethoxine	474.15	
1220-94-6	Disperse Violet 4	466.15	
12201-48-8	Zirconate (ZrO32-), sodium (1:2)	1124.15	
122111-03-9	Gemcitabine hydrochloride	562.65	
1222-42-0	Methyl 2-[(2,3-dimethylphenyl)amino]benzoate	371.15	
1222-57-7	Zolimidine	516.15	
1222-90-8	Albonoursin	544.65	
1222-98-6	4-Nitrochalcone	437.65	
12223-84-6	3-Nitro-4-(phenylamino)benzenesulfonamide	452.15	
1223-31-0	1,1′-Thiobis[4-nitrobenzene]	426.15	
1223-36-5	2-(4-Chlorophenoxy)-N-[2-(diethylamino)ethyl]acetamide	318.15	
12232-94-9	Bismuth, compd. with lanthanum (1:1)	1888.15	
122320-73-4	Rosiglitazone	425.15	
12233-02-2	Bismuth, compd. with neodymium (1:1)	2173.15	
12233-56-6	Bismuth germanium oxide (Bi4Ge3O12)	1334.15	
12233-73-7	Bismuth germanium oxide (Bi12GeO20)	1205.15	
12239-34-8	Disperse Blue 79	430.15	
1224-56-2	Phosphonium, tributyl(phenylmethyl)-, chloride (1:1)	437.55	
1224-92-6	5α-Androstan-3β-ol	420.65	
12243-46-8	Cyclobutenediylium, 1,3-bis[(1,3-dihydro-1,3,3-trimethyl-2H-indol-2-ylidene)methyl]-2,4-dihydroxy-, bis(inner salt)	574.65	
12244-10-9	Albite ((Si2.9-3Al1-1.1)(Na0.9-1Ca0-0.1)O8)	1075.65	
122453-73-0	Chlorfenapyr	373.65	
12246-80-9	Benzoic acid, 6-[2-[6-[2-(dimethylamino)ethyl]-4-methoxy-1,3-benzodioxol-5-yl]acetyl]-2,3-dimethoxy-, ethyl ester, hydrochloride (1:1)	482.15	
12249-54-6	Gallium silver sulfide (GaAgS2)	1266.81	
1225-01-0	19-Norandrosterone	443.9	
1225-13-4	rel-(2R,3S)-2,3-Diphenylbutanedioic acid	501.15	
1225-15-6	6,7-Dichloro-1,4-dihydroxy-9,10-anthracenedione	561.15	
1225-55-4	Protriptyline hydrochloride	443.15	
1225-56-5	Nordoxepin	334.15	
1225-60-1	Isothipendyl hydrochloride	490.65	
1225-65-6	Prothipendyl hydrochloride	383.15	
122548-33-8	Imazosulfuron	456.15	
122551-89-7	3-Chloro-4-(dichloromethyl)-2(5H)-furanone	316.65	
12256-37-0	Cesium, compd. with gold (1:1)	853.15	
12257-42-0	Bis[chloro(norbornadiene)rhodium]	513.15	
1226-26-2	5-(Phenoxymethyl)-3-phenyl-1,3-oxazolidin-2-one	408.65	
1226-42-2	4,4′-Dimethoxybenzil	334.95	
1226-43-3	Benzoic acid, 2-benzoyl-1,2-dimethylhydrazide	359.15	
1226-46-6	4,4′-Bis(dimethylamino)thiobenzophenone	476.15	
1226-48-8	2-Nitrophenyl 4-methylbenzenesulfonate	353.65	
12262-58-7	Cyclohexanone peroxide	340.65	
12263-85-3	Tribromotrimethyldialuminum		439.15
122647-32-9	Ibutilide fumarate	391.15	
12265-05-3	Aluminum, compd. with ytterbium (2:1)	1633.15	
122665-97-8	4,4-Difluorocyclohexanecarboxylic acid	379.05	
122672-46-2	Cispentacin	468.65	
12269-78-2	Pyrophyllite (AlH(SiO3)2)		372.95
1227-45-8	N,N′-Bis(4-methoxyphenyl)thiourea	415.15	
1227-51-6	δ-Octadecalactone	311.65	
1227-99-2	α-Phenyl-α-2-thienyl-4-morpholinepropanol	359.15	
12279-09-3	Di-μ-chlorotetrakis[(1,2-η)-cyclooctene]dirhodium	413.15	
1228-19-9	Glypinamide	465.15	
1228-53-1	1,1′-Sulfonylbis[3-nitrobenzene]	470.15	473.65
1228-73-5	3-Hydroxyestra-1,3,5(10)-triene-16,17-dione	506.15	
122836-35-5	Sulfentrazone	395.15	
122852-42-0	Alosetron	512.15	
122852-69-1	Alosetron hydrochloride	562.65	
122892-31-3	Itopride hydrochloride	467.15	
1229-12-5	(5β)-Androstane-3,17-dione	404.65	
1229-29-4	Doxepin hydrochloride	458.15	
1229-35-2	Methdilazine hydrochloride	461.4	
1229-55-6	Solvent Red 1	456.15	
1229-73-8	1-Chloro-4-(2,2-diphenylethenyl)benzene	349.65	
122931-48-0	Rimsulfuron	450.15	
122955-42-4	10,10-Bis(4-pyridinylmethyl)-9(10H)-anthracenone	504.65	
12298-00-9	Gallium magnesium sulfide (Ga2MgS4)	1365.15	
123-00-2	4-(3-Aminopropyl)morpholine	258.15	493.15
123-01-3	Dodecylbenzene	276.15	601.15
123-02-4	Tridecylbenzene	283.15	619.15
123-03-5	Cetylpyridinium chloride	353.15	
123-04-6	3-(Chloromethyl)heptane		445.15
123-05-7	2-Ethylhexanal		436.15
123-06-8	2-(Ethoxymethylene)propanedinitrile	339.15	
123-07-9	4-Ethylphenol	319.15	491.05
123-08-0	4-Hydroxybenzaldehyde	390.15	583.15
123-09-1	1-Chloro-4-(methylthio)benzene	291.65	443.15
123-10-4	N1,N1-Diethyl-N2,N2-dimethyl-1,2-ethanediamine		439.65
123-11-5	4-Methoxybenzaldehyde	273.15	522.65
123-15-9	(±)-2-Methylpentanal		390.15
123-17-1	2,6,8-Trimethyl-4-nonanol		498.15
123-18-2	2,6,8-Trimethyl-4-nonanone		484.15
123-19-3	4-Heptanone	240.15	418.15
123-20-6	Vinyl butyrate	389.85	380.65
123-23-9	Succinic acid peroxide	398.15	
123-25-1	Diethyl succinate	252.15	490.85
123-26-2	N,N′-1,2-Ethanediylbis[12-hydroxyoctadecanamide]	413.15	
123-28-4	Dilauryl thiodipropionate	313.15	
123-29-5	Ethyl nonanoate	236.45	500.15
123-30-8	4-Aminophenol	463.05	557.15
123-31-9	Hydroquinone	443.65	559.15
123-32-0	2,5-Dimethylpyrazine	288.15	428.15
123-33-1	Maleic hydrazide	572.15	
123-34-2	3-(Allyloxy)-1,2-propanediol	178.15	
123-35-3	Myrcene		440.15
123-38-6	Propanal	192.15	322.15
123-39-7	N-Methylformamide	267.75	455.65
123-42-2	Diacetone alcohol	229.15	295.15
123-43-3	Sulfoacetic acid	357.15	
123-44-4	2,2,4-Trimethyl-1-pentanol	439.4	
123-45-5	Sulfonyldiacetic acid	455.15	
123-46-6	Girard-T reagent	465.15	
123-47-7	1,3-Propanediaminium, 2-hydroxy-N1,N1,N1,N3,N3,N3-hexamethyl-, iodide (1:2)	548.15	
123-48-8	2,2,4,6,6-Pentamethyl-3-heptene		454.5
123-51-3	Isoamyl alcohol	155.95	405.65
123-54-6	Acetylacetone	250.15	413.15
123-56-8	Succinimide	399.65	561.15
123-57-9	3,5-Dimethylmorpholine	452.65	415.65
123-61-5	1,3-Phenylene diisocyanate	324.15	
123-62-6	Propionic anhydride	228.15	440.15
123-63-7	Paraldehyde	285.75	397.65
123-66-0	Ethyl hexanoate	206.15	440.15
123-68-2	Allyl caproate		460.15
123-69-3	Ambrettolide		428.15
123-72-8	Butanal	174.15	347.95
123-73-9	trans-Crotonaldehyde	197.15	377.15
123-75-1	Pyrrolidine	330.84	359.86
123-76-2	Levulinic acid	306.15	518.65
123-77-3	Azodicarbonamide	498.15	
123-78-4	Sphingosine	340.15	
123-79-5	Dioctyl adipate	280.64	487.15
123-82-0	2-Aminoheptane	374.65	415.15
123-83-1	N,N-Dimethyl-N′-ethylethylenediamine		407.65
123-84-2	N-(2-Hydroxypropyl)ethylenediamine	223.15	428.15
123-86-4	Butyl acetate	195.15	399.25
123-88-6	(Methoxyethyl)mercury chloride	338.15	
123-90-0	Thiomorpholine	445.65	448.15
123-91-1	1,4-Dioxane	284.95	374.25
123-92-2	Isoamyl acetate	194.65	415.65
123-93-3	Thiodiglycolic acid	402.15	
123-94-4	1-Monostearin	313.65	
123-95-5	Butyl stearate	300.15	616.15
123-96-6	2-Octanol	234.55	451.65
123-99-9	Azelaic acid	379.65	559.65
12300-26-4	[(1-Methylethoxy)methyl]ferrocene	377.15	
123040-16-4	Y 25130	554.15	
123048-17-9	Phyltetralin	371.15	
12305-97-4	Iron, compd. with praseodymium (2:1)	1303.15	
1231-74-9	Methyl (1S,4aS,10aR)-1,2,3,4,4a,9,10,10a-octahydro-6-methoxy-1,4a-dimethyl-1-phenanthrenecarboxylate	401.15	
1231-93-2	Ethynodiol	423.65	
12315-28-5	Germanium lithium oxide (GeLi2O3)	1512.15	
12317-46-3	[(2,3,5,6-η)-Bicyclo[2.2.1]hepta-2,5-diene]dichloropalladium	468.15	
123312-89-0	Pymetrozine	490.15	
123318-82-1	Clofarabine	499.15	
123324-71-0	4-tert-Butylphenylboronic acid	433.15	
123343-16-8	Pyrithiobac sodium	521.15	
123348-27-6	2-Bromo-7-iodo-9H-fluorene	433.65	
1234-22-6	1H-Azepine, 1,1′-(1,4-cyclohexylenedimethylene)bis[hexahydro-, dihydrochloride, trans-	631.15	
1234-28-2	N,N′-Bis(4-nitrophenyl)thiourea	434.15	
1234-30-6	N,N′-Bis(4-ethoxyphenyl)thiourea	443.15	
1234-35-1	Benzyloxycarbonyl-L-arginine	448.15	
123482-23-5	7-Benzofurancarboxamide, 5-chloro-2,3-dihydro-2,2-dimethyl-N-[(3-endo)-8-methyl-8-azabicyclo[3.2.1]oct-3-yl]-, (2Z)-2-butenedioate (1:1)	458.15	
1235-15-0	Norbolethone	417.65	
1235-21-8	Phosphonium, (2-oxopropyl)triphenyl-, chloride (1:1)	507.15	
1235-23-0	1,1′,1′′-[(2-Chloroethoxy)methylidyne]tris[benzene]	403.65	
1235-77-4	Daniellic acid	402.9	
1235-82-1	Biperiden hydrochloride	548.15	
123524-52-7	Azelnidipine	369.65	
12354-84-6	Iridium, di-μ-chlorodichlorobis[(1,2,3,4,5-η)-1,2,3,4,5-pentamethyl-2,4-cyclopentadien-1-yl]di-	518.15	
123572-88-3	Furametpyr	418.15	
1236-09-5	Pregn-5-ene-3,20-dione	432.15	
1236-36-8	1H-Purine-2,6-dione, 3,7-dihydro-1,3-dimethyl-7-[2-[(phenylmethyl)amino]ethyl]-, hydrochloride (1:1)	535.65	
1236-49-3	Androstan-17-ol, 17-acetate, (5α,17β)-	368.65	
123652-87-9	N-[(2S,3R)-3-Amino-2-hydroxy-1-oxo-4-phenylbutyl]-L-leucyl-L-prolyl-L-proline	441.65	
123653-11-2	N-[2-(Cyclohexyloxy)-4-nitrophenyl]methanesulfonamide	398.15	
1237-52-1	N-Phenyl-N-[1-(phenylmethyl)-4-piperidinyl]acetamide	381.25	
1237-53-2	2-Chloro-4,6-bis(2,4-dimethylphenyl)-1,3,5-triazine	407.15	
1239-04-9	2,6-Methano-3-benzazocin-8-ol, 1,2,3,4,5,6-hexahydro-6,11-dimethyl-3-(2-phenylethyl)-, hydrobromide (1:1)	441.15	
1239-29-8	Furazabol	425.65	
1239-31-2	3β-Acetoxy-5α-androstan-17-one	376.65	
124-01-6	Chloro(2-ethoxyethyl)mercury	365.15	
124-02-7	Diallylamine	184.75	384.15
124-03-8	Cetyldimethylethylammonium bromide	455.15	
124-04-9	Adipic acid	425.15	611.15
124-05-0	C,C′-1,2-Ethanediyl dicarbonochloridate		456.15
124-06-1	Ethyl myristate	285.45	568.15
124-07-2	Octanoic acid	289.85	512.85
124-09-4	Hexamethylenediamine	315.15	478.15
124-10-7	Methyl myristate	292.15	568.15
124-11-8	1-Nonene	191.85	420.05
124-12-9	Octanenitrile	227.55	478.35
124-13-0	Octanal	250.15	436.55
124-16-3	1-(Butoxyethoxy)-2-propanol		503.45
124-17-4	Diethylene glycol monobutyl ether acetate	241.15	518.15
124-18-5	Decane	243.45	447.25
124-19-6	Nonanal	367.65	464.15
124-20-9	Spermidine		402.15
124-22-1	Dodecylamine	301.45	532.15
124-23-2	1-Hexadecanaminium, N,N,N-trimethyl-, octadecanoate (1:1)	415.65	
124-25-4	Tetradecanal	299.65	
124-26-5	Stearamide	382.15	
124-28-7	Dimethyloctadecylamine	296.04	
124-30-1	Octadecylamine	326.05	619.95
124-38-9	Carbon dioxide	216.55	194.65
124-40-3	Dimethylamine	180.95	279.95
124-41-4	Sodium methoxide	400.15	353.15
124-42-5	Ethanimidamide, hydrochloride (1:1)	450.65	
124-47-0	Urea nitrate	425.15	
124-48-1	Dibromochloromethane	253.15	393.15
124-58-3	Methylarsonic acid	433.65	
124-63-0	Methanesulfonyl chloride	241.15	335.15
124-64-1	Tetrakis(hydroxymethyl)phosphonium chloride	427.15	
124-65-2	Sodium cacodylate	473.15	
124-68-5	2-Amino-2-methyl-1-propanol	304.15	438.15
124-70-9	Methylvinyldichlorosilane	195.15	365.65
124-72-1	2-Bromo-1,1,1,2-tetrafluoroethane	193.15	281.75
124-73-2	1,2-Dibromo-1,1,2,2-tetrafluoroethane	161.15	320.45
124-76-5	Isoborneol	486.15	
124-80-1	Sabadine	531.15	
124-83-4	D-Camphoric acid	462.25	
124-85-6	Pregn-2-en-20-yn-17-ol, 17-acetate, (5α,17α)-	400.4	
124-90-3	Oxycodone hydrochloride	541.65	
124-94-7	Triamcinolone	543.15	
124-97-0	Protoveratrine B	542.65	
124-98-1	(3α,4α,16β)-4,9-Epoxycevane-3,4,12,14,16,17,20-heptol	441.65	
124-99-2	Scillaren A	466.65	
1240-37-5	N,N′-Di-1-naphthalenylthiourea	474.45	
12401-70-6	Potassium oxide (KO)	677.15	
12402-95-8	Carborane	560.65	
12408-10-5	Tetrachlorobenzene	413.65	
1241-94-7	2-Ethylhexyl diphenyl phosphate	243.15	648.15
124172-53-8	Uvinul 4050H	428.15	
1242-47-3	Pregn-4-ene-3,20-dione, 12-bromo-11-hydroxy-, (11β,12α)-	494.15	
12427-38-2	Maneb	471.15	
1243-66-9	4-Methyl-N-tetradecylbenzenesulfonamide	360.65	
1243-97-6	Phosphonium, triphenyl(phenylmethyl)-, iodide (1:1)	532.15	
12431-04-8	Bismuth, compd. with cesium (1:3)	933.15	
12432-30-3	Cerium, compd. with iron (1:5)	1333.15	
124330-34-3	3-(4-Fluorophenoxy)-7-hydroxy-4H-1-benzopyran-4-one	507.65	
12441-09-7	Sorbitan	386.15	
124423-84-3	Panadiplon	442.15	
1245-13-2	Bicinchoninic acid	625.15	
1245-15-4	5-Hydroxy-3,7,3′,4′-tetramethoxyflavone	432.65	
1245-44-9	Propicillin potassium	469.15	
124693-70-5	Artonin B	476.15	
1247-04-7	14-Hydroxy-3-oxocarda-4,20(22)-dienolide	510.65	
1247-19-4	1,1′-(Diphenoxysilylene)bis[benzene]	343.65	
1247-42-3	Methylprednisone	475.65	
1247-71-8	17-Oxo-1,3,5(10)-triene-3,16α-diol diacetate	452.65	
1247-97-8	3,5,7,3′,4′-Pentamethoxyflavone	423.15	
124700-41-0	2-Fluoro-5-iodobenzoic acid	435.15	
124721-15-9	Artonin A	512.65	
124750-51-2	5-[4′-(Bromomethyl)[1,1′-biphenyl]-2-yl]-1-(triphenylmethyl)-1H-tetrazole	409.15	
124750-92-1	Losartan carboxylic acid	450.15	
124750-99-8	Losartan potassium	457.15	
1248-45-9	2-[1,1′-Biphenyl]-4-yl-5-(1-naphthalenyl)-1,3,4-oxadiazole	429.65	
1249-75-8	Methyl lithocholate	398.65	
1249-81-6	Thiocholesterol	464.15	
1249-97-4	3,7-Bis(dimethylamino)-10-benzoylphenothiazine	459.15	
124937-52-6	Tolterodine tartrate	489.15	
124937-54-8	Phenol, 2-[(1S)-3-[bis(1-methylethyl)amino]-1-phenylpropyl]-4-methyl-, (2S,3S)-2,3-dihydroxybutanedioate (1:1)	479.15	
125-04-2	Hydrocortisone sodium succinate	443.65	
125-10-0	Prednisone acetate	499.15	
125-12-2	Isobornyl acetate	484.65	
125-13-3	Oxyphenisatin	533.65	
125-15-5	Vomicine	555.15	
125-20-2	Thymolphthalein	526.15	