CAS	name	Tm	Tb
115231-88-4	1,4-Benzenedicarboxylic acid, polymer with (2E)-2-butenedioic acid, α,α′-[(1-methylethylidene)di-4,1-phenylene]bis[ω-hydroxypoly(oxy-1,2-ethanediyl)] and α,α′-[(1-methylethylidene)di-4,1-phenylene]bis[ω-hydroxypoly[oxy(methyl-1,2-ethanediyl)]]	337.15	
115241-77-5	2-[2,4-Bis(1,1-dimethylpropyl)phenoxy]-N,N-diethylacetamide	328.65	
115256-11-6	Dofetilide	421.15	
1153-05-5	Triphenylarsine oxide	462.15	
1153-06-6	Chlorotriphenylplumbane	478.15	
1153-45-3	Benzenesulfonic acid, 4-methyl-, 4-nitrophenyl ester	370.15	
1153-51-1	5α-Androst-16-en-3α-ol	415.9	
1153-66-8	3,5-Diethyl 4-ethyl-1,4-dihydro-2,6-dimethyl-3,5-pyridinedicarboxylate	385.15	
115314-14-2	Benzenesulfonic acid, 3-nitro-, (2S)-2-oxiranylmethyl ester	335.5	
115314-17-5	Benzenesulfonic acid, 3-nitro-, (2R)-2-oxiranylmethyl ester	335.5	
115362-13-5	(2R,3R)-3-(4-Bromophenyl)-2-oxiranemethanol	334.65	
1154-12-7	1-Propanamine, N,N-dimethyl-3-(thieno[2,3-c][2]benzothiepin-4(9H)-ylidene)-, hydrochloride (1:1)	517.15	
1154-59-2	3,3′,4′,5-Tetrachlorosalicylanilide	434.15	
1154-77-4	1-(2,4-Dimethoxyphenyl)-3-phenyl-2-propen-1-one	351.15	
1154-84-3	N,N′-Diphenyl-N-(trimethylsilyl)urea	341.15	
115457-83-5	6-O-(N-Heptylcarbamoyl)-methyl-α-D-glucopyranoside	382.15	
1155-00-6	Bis(2-nitrophenyl) disulfide	469.65	
1155-38-0	1a,11b-Dihydro-11-methylbenz[a]anthra[5,6-b]oxirene	391.65	
1155-40-4	3,5-Diiodothyroacetic acid	497.4	
1155-49-3	Falicaine	439.15	
1155-56-2	1-Benzyl-4-(phenylamino)piperidine	1140.15	
1155-62-0	N-(Benzyloxycarbonyl)-L-glutamic acid	394.15	
1155-64-2	ε-(Benzyloxycarbonyl)-L-lysine	503.15	
1155-74-4	Tetradecylpyridinium bromide	339.15	
115550-35-1	Marbofloxacin	541.65	
115550-36-2	9-Fluoro-2,3-dihydro-3-methyl-7-oxo-10-(1-piperazinyl)-7H-pyrido[3,2,1-ij][4,1,2]benzoxadiazine-6-carboxylic acid	515.65	
115575-11-6	Liarozole	381.35	
1156-05-4	Phenglutarimide	399.15	
1156-19-0	Tolazamide	444.65	
1156-50-9	1,1′-Sulfonylbis[4-nitrobenzene]	555.15	
1156-51-0	Bisphenol A dicyanate	351.65	
1156-64-5	1,4-Dihydro-2,6-dimethyl-4-propyl-3,5-pyridinedicarboxylic acid diethyl ester	398.15	
1157-39-7	4′,7-Dimethoxyisoflavone	428.15	
1158-17-4	o-Nitrophenyl β-D-thiogalactoside	469.15	
1158-51-6	Azidotriphenylstannane	388.65	
1159-03-1	5-[3-(Dimethylamino)propyl]-10,11-dihydro-5H-dibenzo[a,d]cyclohepten-5-ol	391.65	
1159-53-1	Tri-p-tolylamine	390.15	567.95
1159-54-2	Tris(4-chlorophenyl)phosphine	376.15	
1159-86-0	1,2-Dibenzoylbenzene	421.15	
1159-93-9	Clobenzepam	438.65	
115956-13-3	Dolasetron mesylate	551.15	
115970-17-7	Desnitro-imidacloprid	523.15	
116-01-8	Ethoate-methyl	339.25	
116-02-9	3,3,5-Trimethylcyclohexanol	310.15	471.15
116-06-3	Aldicarb	372.65	
116-09-6	Hydroxyacetone	256.15	418.65
116-11-0	2-Methoxypropene		308.15
116-14-3	Tetrafluoroethylene	130.65	197.25
116-15-4	Hexafluoropropylene	116.65	243.55
116-16-5	Hexachloroacetone	271.15	476.15
116-25-6	1-(Hydroxymethyl)-5,5-dimethylhydantoin	373.15	
116-26-7	Safranal		343.15
116-29-0	Tetradifon	420.15	
116-31-4	Retinal	336.15	
116-38-1	Edrophonium chloride	435.65	
116-42-7	Sulfaproxyline	445.65	
116-43-8	Succinylsulfathiazole	466.65	
116-44-9	Sulfapyrazine	524.15	
116-52-9	1,3-Bis(2,2,2-trichloro-1-hydroxyethyl)urea	469.15	
116-53-0	2-Methylbutanoic acid		449.65
116-54-1	Methyl dichloroacetate	221.25	416.05
116-64-3	4-Hydroxy-2-naphthalenesulfonamide	470.65	
116-66-5	Moskene		624.25
116-71-2	Anthra[9,1,2-cde]benzo[rst]pentaphene-5,10-dione	611.65	
116-74-5	1,4-Bis[(2,4,6-triethylphenyl)amino]-9,10-anthracenedione	548.15	
116-75-6	Solvent Blue 104	510.15	
116-82-5	1-Amino-2-bromo-4-hydroxy-9,10-anthracenedione	505.15	
116-83-6	1-Amino-4-methoxy-9,10-anthracenedione	444.15	
116-84-7	1-Amino-5-chloro-4-hydroxy-9,10-anthracenedione	526.65	
116-85-8	1-Amino-4-hydroxyanthraquinone	489.15	
116-90-5	[4,4′-Bi-7H-benz[de]anthracene]-7,7′-dione	644.15	
1160-28-7	8,8′-Dithiobis[quinoline]	479.15	
1160-54-9	(Benzyloxycarbonyl)glycyl-L-proline	429.15	
116078-65-0	Bidisomide	413.65	
1161-13-3	Benzyloxycarbonyl-L-phenylalanine	376.15	
1161-22-4	1,3-Bis[4-(dimethylamino)phenyl]-2-propen-1-one	425.15	
1161-88-2	Sulfatolamide	452.15	
1162-06-7	Triphenylplumbyl acetate	479.65	
1162-53-4	16-Dehydropregnenolone	486.15	
1162-54-5	1-Dehydroprogesterone	424.65	
1162-60-3	Δ4-Tibolone	471.4	
116249-65-1	Benanomicin A	516.15	
116255-48-2	Bromuconazole	357.15	
1163-19-5	Decabromodiphenyl ether	578.15	803.15
1163-36-6	Clemizole hydrochloride	513.15	
1163-37-7	Isoquinoline, 3-ethyl-6,7-dimethoxy-1-(phenylmethyl)-, hydrochloride (1:1)	487.15	
1163-67-3	3-(Acetyloxy)-N-phenyl-2-naphthalenecarboxamide	425.15	
116313-85-0	3,4-Dihydroxy-5-nitrobenzaldehyde	422.15	
116346-23-7	4-(Octylthio)butanoic acid	308.65	
116366-24-6	Tyrosine, O-methyl-3-nitro-, ethyl ester, hydrochloride (1:1)	464.15	
116387-59-8	6-Bromo-2,7-dihydro-3-methyl-2,7-dioxo-3H-naphtho[1,2,3-de]quinoline-1-carbonitrile	619.15	
1164-16-5	Carbobenzoxy-L-tyrosine	368.65	
1164-38-1	Lachesine	486.15	
1164-72-3	4-[(4-Methylphenyl)amino]-1-(phenylmethyl)-4-piperidinecarboxamide	439.9	
1164-81-4	4-Chloropregn-4-ene-3,20-dione	492.4	
1164-91-6	Dihydrotestosterone acetate	430.9	
1164-92-7	17β-Acetoxy-5β-androstan-3-one	414.65	
1164-95-0	Androsterone, acetate	377.15	
1164-99-4	(17β)-17-(Acetyloxy)-4-chloroestr-4-en-3-one	442.15	
116476-14-3	2H-1,4-Benzothiazin-3(4H)-one, 2-[2-[3-[[2-(1,3-benzodioxol-5-yloxy)ethyl]methylamino]propoxy]-5-methoxyphenyl]-4-methyl-, (2R)-, (2E)-2-butenedioate (1:1)	407.65	
1165-06-6	1,4-Dihydro-2,6-dimethyl-4-phenyl-3,5-pyridinedicarboxylic acid diethyl ester	429.65	
1165-48-6	Dimefline	382.65	
116521-53-0	1-[2-[(2S,4S)-4-[(2,6-Dideoxy-2-fluoro-α-L-talopyranosyl)oxy]-1,2,3,4,6,11-hexahydro-2,5,12-trihydroxy-7-methoxy-6,11-dioxo-2-naphthacenyl]-2-oxoethyl] heptanedioate	383.65	
116523-57-0	2-[4-[(2-Butyl-3-benzofuranyl)methyl]-2,6-diiodophenoxy]-N,N-diethylethanamine	353.65	
116539-55-0	(αS)-α-[2-(Methylamino)ethyl]-2-thiophenemethanol	344.9	
1166-34-3	Cinanserin	355.65	
1166-52-5	Dodecyl gallate	369.9	
116666-63-8	Mibefradil dihydrochloride	401.15	
116714-46-6	Novaluron	450.65	
1168-42-9	5,6,7,4′-Tetramethoxyflavone	432.15	
1168-87-2	N-[(Phenylmethoxy)carbonyl]-L-alanine 4-nitrophenyl ester	348.15	
116834-10-7	1-(4-Methoxyphenyl)-5-(1H-pyrrol-1-yl)-1H-pyrazole-4-carboxylic acid	450.15	
116850-58-9	4-Methyl-3-(methylsulfonyl)-5-(2-thienyl)-4H-1,2,4-triazole	431.15	
1169-49-9	Testosterone, isobutyrate	408.15	
1169-60-4	Methyl aristolochate	553.15	
1169-79-5	Quinestradol	372.15	
116943-66-9	2-Oxo-N-tricyclo[3.3.1.13,7]dec-1-yl-3-oxazolidinesulfonamide	450.15	
117-02-2	Rubiadin	563.15	
117-06-6	N-(5-Amino-9,10-dihydro-9,10-dioxo-1-anthracenyl)benzamide	532.15	
117-07-7	1-Amino-2-chloro-9,10-anthracenedione	470.15	
117-08-8	Tetrachlorophthalic anhydride	528.9	644.15
117-10-2	1,8-Dihydroxyanthraquinone	466.15	
117-11-3	1-Amino-5-chloroanthraquinone	483.15	
117-12-4	Anthrarufin	553.15	
117-18-0	1,2,4,5-Tetrachloro-3-nitrobenzene	372.65	577.15
117-21-5	3-Chlorophthalic anhydride	397.95	
117-27-1	1,1′-(2-Nitropropylidene)bis[4-chlorobenzene]		453.15
117-34-0	Diphenylacetic acid	420.15	
117-37-3	Anisindione	429.65	
117-39-5	Quercetin	589.65	
117-52-2	Coumafuryl	397.15	
117-57-7	3-Hydroxy-2-methyl-4-quinolinecarboxylic acid	502.65	
117-61-3	2,2′-Benzidinedisulfonic acid	441.15	
117-71-5	2′-Chloro[1,1′-biphenyl]-2,5-diol	371.65	
117-74-8	Benzo[g]-1,3-benzodioxolo[5,6-a]quinolizinium, 5,6-dihydro-9,10-dimethoxy-, hydroxide (1:1)	434.15	
117-78-2	2-Anthraquinonecarboxylic acid	564.15	
117-79-3	2-Aminoanthraquinone	575.15	
117-80-6	2,3-Dichloro-1,4-naphthoquinone	468.15	
117-81-7	Dioctyl phthalate	218.15	503.15
117-82-8	Bis(2-methoxyethyl) phthalate	228.15	613.15
117-83-9	Bis(2-butoxyethyl) phthalate		543.15
117-84-0	Di-n-octyl phthalate	248.15	
117-89-5	Trifluoperazine	298.15	
117-92-0	Quinaldine Red	515.15	
117-93-1	N-(2-Hydroxy-1-naphthalenyl)acetamide	508.15	
117-99-7	2-Hydroxybenzophenone	313.15	523.15
1170-76-9	N-[(Phenylmethoxy)carbonyl]glycyl-L-phenylalanine	398.65	
1171-47-7	2,2-Bis(4-carboxyphenyl)hexafluoropropane	569.15	
1171-81-9	16α-Hydroxycortisol	513.15	
1172-02-7	(2,4,7-Trinitrofluorenylidene)malononitrile	540.15	
1172-18-5	Flurazepam hydrochloride	478.15	
1172-76-5	1,2-Dimethyl-1,1,2,2-tetraphenyldisilane	416.15	
1172131-64-4	2-(1-Amino-1-methylethyl)-4-[[[(4-fluorophenyl)methyl]amino]carbonyl]-1,6-dihydro-1-methyl-6-oxo-5-pyrimidinyl 2,2-dimethylpropanoate	483.65	
117238-82-1	α-(4-Chlorophenyl)-6,7,8,9-tetrahydronaphtho[2,1-b]furan-2-methanol	375.15	
1173-09-7	(3β,16α)-21-(Acetyloxy)-3-hydroxy-16-methylpregn-5-en-20-one	426.15	
1173-21-3	(3β,5β,7β)-3,7,14-Trihydroxycard-20(22)-enolide	542.65	
1173-26-8	Corticosterone acetate	425.9	
1173-88-2	Oxacillin sodium	461.15	
117337-19-6	Fluthiacet-methyl	379.15	
1174-11-4	4-[(2-[1,1′-Biphenyl]-4-yl-1-ethoxy-2-oxoethyl)amino]benzoic acid	465.15	
1174-69-2	Pregnane-3,20-diol, 3,20-diacetate, (3α,5β,20S)-	439.65	
1174-72-7	Tetraphenoxysilane	322.15	690.15
117428-22-5	Picoxystrobin	341.65	
117467-28-4	Cefditoren pivoxil	401.15	
1175-06-0	6-Ketocholestanol	416.65	
1175-12-8	Androstenediol 17-benzoate	487.65	
117545-11-6	Bimakalim	424.15	
117570-53-3	5,6-Dimethylxanthenone-4-acetic acid	533.15	
117570-93-1	2-(6-Carboxy-2,3-dimethylphenoxy)benzeneacetic acid	514.15	
117572-79-9	3-Bromo-4-methoxybenzonitrile	395.15	
1176-03-0	8-Azabicyclo[3.2.1]octane-2-carboxylic acid, 3-(benzoyloxy)-8-methyl-, methyl ester, (1R,2S,3S,5S)-, (2R,3R)-2,3-dihydroxybutanedioate (1:1)	412.15	
1176-08-5	Phenyltoloxamine citrate	412.15	
1176-81-4	(6α,11β,16α)-21-(Acetyloxy)-6-fluoro-11-hydroxy-16-methylpregn-4-ene-3,20-dione	523.15	
117620-87-8	8-O-Methyltetrangomycin	442.65	
117621-64-4	rel-(4Z)-6-[(2R,4R,5S)-2-(2-Chlorophenyl)-4-(2-hydroxyphenyl)-1,3-dioxan-5-yl]-4-hexenoic acid	398.15	
117652-28-5	2-Methoxy-4-[2-(methylamino)propyl]phenol	387.65	
117671-01-9	3-(Ethylsulfonyl)-2-pyridinesulfonamide	484.9	
1177-30-6	4-Thia-1-azabicyclo[3.2.0]heptane-2-carboxylic acid, 3,3-dimethyl-7-oxo-6-[(2-phenoxy-2-phenylacetyl)amino]-, potassium salt (1:1), (2S,5R,6R)-	364.65	
1177-71-5	Laxogenin	484.15	
1177-87-3	Dexamethasone acetate	536.15	
117704-65-1	Pradimicin A	467.15	
117718-60-2	Thiazopyr	351.35	
1178-24-1	3,5,6,7,8,3′,4′-Heptamethoxyflavone	403.15	
1178-27-4	Piperazine, 1-[2-[[(2-chlorophenyl)phenylmethyl]thio]ethyl]-4-[(2-methylphenyl)methyl]-, hydrochloride (1:2)	489.15	
117829-74-0	1-Propanol, 3-(dimethylamino)-, hydrochloride (1:1)	384.4	
117854-28-1	Befol	461.15	
1179-69-7	Thiethylperazine maleate	462.15	
1179-87-9	(16α)-16,17-[(1-Phenylethylidene)bis(oxy)]pregn-4-ene-3,20-dione	421.15	
117906-15-7	1-[(6-Chloro-3-pyridinyl)methyl]-3-methyl-N-nitro-2-imidazolidinimine	383.15	
117946-91-5	Luzindole	376.65	
117976-89-3	Rabeprazole	372.65	
118-00-3	Guanosine	512.15	
118-04-7	2-(3-Amino-4-chlorobenzoyl)benzoic acid	454.9	
118-08-1	(-)-Hydrastine	405.15	
118-10-5	Cinchonine	538.15	
118-13-8	3-Hydroxy-4-quinolinecarboxylic acid	485.15	
118-29-6	N-(Hydroxymethyl)phthalimide	414.65	
118-30-9	2-Ethoxy-1-naphthalenamine	321.65	
118-31-0	1-Naphthalenemethanamine	335.15	
118-34-3	Syringin	462.65	
118-41-2	3,4,5-Trimethoxybenzoic acid	445.45	
118-42-3	Hydroxychloroquine	363.15	
118-44-5	N-Ethyl-1-naphthalenamine	437.65	578.15
118-45-6	4-Chlorophthalic anhydride	371.15	561.15
118-46-7	8-Amino-2-naphthol	479.15	
118-48-9	Isatoic anhydride	516.15	
118-52-5	1,3-Dichloro-5,5-dimethylhydantoin	405.15	
118-55-8	Phenyl salicylate	403.65	446.15
118-56-9	Homosalate		436.15
118-57-0	Acetaminosalol	460.15	
118-58-1	Benzyl salicylate	403.65	593.15
118-61-6	Ethyl salicylate	274.15	505.65
118-62-7	2-Hydroxy-N-2-propen-1-ylbenzamide	325.15	
118-65-0	(-)-Isocaryophyllene		403.15
118-68-3	Etryptamine acetate	438.15	
118-69-4	2,6-Dichlorotoluene	298.95	471.15
118-70-7	4,5,6-Pyrimidinetriamine	530.15	
118-71-8	Maltol	434.65	418.15
118-74-1	Hexachlorobenzene	504.95	598.15
118-75-2	Chloranil	563.15	
118-76-3	Rhodizonic acid	521.15	
118-79-6	2,4,6-Tribromophenol	368.15	559.15
118-82-1	4,4′-Methylenebis[2,6-di-tert-butylphenol]	427.65	
118-83-2	5-Chloro-2-nitrobenzotrifluoride	294.65	274.676
118-90-1	2-Methylbenzoic acid	376.85	532.15
118-91-2	2-Chlorobenzoic acid	415.15	560.15
118-92-3	Anthranilic acid	418.15	
118-93-4	2′-Hydroxyacetophenone	278.15	491.15
118-95-6	2-Isopropyl-4,6-dinitrophenol	327.15	
118-96-7	2,4,6-Trinitrotoluene	353.25	610.65
118-97-8	4-Chloro-3,5-dinitrobenzoic acid	435.15	434.65
1180-60-5	Cyclotriveratrylene	507.15	
1180-71-8	Limonin	571.15	340.15
1180-95-6	Sodium taurodeoxycholate	446.15	
118024-67-2	3,9-Dihydro-1-methyl-3-propyl-1H-purine-2,6-dione	494.15	
118072-93-8	Zoledronic acid	511.65	
1182-06-5	7-Dehydrocholesterol benzoate	408.15	
1182-07-6	Cholesteryl heptanoate	384.95	
1182-34-9	1,4-Dicaffeoylquinic acid	498.15	
1182-42-9	Cholesteryl caprylate	379.15	
1182-65-6	Cholesteryl tosylate	404.15	
1182-66-7	Cholesteryl nonanoate	353.15	
1182-87-2	Peruvoside	435.65	
118289-17-1	2-Bromo-4-pyridinecarboxaldehyde	326.2	
118289-55-7	5-(2-Chloroethyl)-6-chlorooxindole	483.65	
118292-40-3	Tazarotene	370.65	
1183-04-6	Cholesteryl decanoate	364.15	
1183-12-6	Morellin	427.15	
1183-35-3	Dihydroouabain	442.15	
1184-10-7	Hexaphenoxycyclotriphosphazene	383.65	
1184-57-2	Methylmercury hydroxide	368.15	
1184-58-3	Chlorodimethylaluminum	252.15	399.65
1184-60-7	2-Fluoropropene		249.15
1184-65-2	Trichlorogermane	202.15	348.15
1184-76-5	Methane, difluorodiiodo-	201.15	
1184-78-7	Trimethylamine oxide	481.15	
1184-84-5	Vinylsulfonic acid		398.15
1184-88-9	Propanoic acid, 2,2-dimethyl-, sodium salt (1:1)	588.15	
118430-73-2	3-(1,1-Dimethylethyl)-1-methyl-1H-pyrazol-5-amine	429.65	
1185-33-7	2,2-Dimethyl-1-butanol		409.65
1185-39-3	2,2-Dimethylpentanoic acid	344.15	374.65
1185-53-1	Tris(hydroxymethyl)aminomethane hydrochloride	423.55	
1185-55-3	Methyltrimethoxysilane	195.15	375.65
1185-81-5	Dibutylbis(dodecylthio)stannane	263.15	418.15
118534-36-4	5-Chloro-4-nitro-2-(phenylmethoxy)benzenamine	404.15	
1186-52-3	Acetic acid-d4	289.05	
1186-53-4	2,2,3,4-Tetramethylpentane	152.15	406.15
1186-70-5	Bis(dimethylamino)methoxymethane		401.15
1186-73-8	1,1,1-Trimethyl methanetricarboxylate	318.65	
118635-52-2	Tilnoprofen arbamel	423.65	
1187-00-4	D-Mannitol busulfan	408.15	
1187-03-7	N,N,N′,N′-Tetraethylurea		482.15
1187-13-9	(2E)-2-Ethyl-2-butenoic acid	318.15	
1187-42-4	Diaminomaleonitrile	456.15	
1187-46-8	Ethyl 2-bromo-2-cyanoacetate	389.65	
1187-58-2	N-Methylpropionamide	242.25	421.15
1187-59-3	Methylacrylamide	377.15	
1187-84-4	(-)-S-Methyl-L-cysteine	521.15	
1187-93-5	Perfluoro(methyl vinyl ether)		251.15
118712-89-3	Transfluthrin	305.15	
1188-21-2	N-Acetyl-L-leucine	462.65	
1188-33-6	Dimethylformamide diethyl acetal	452.15	402.15
1188-37-0	N-Acetyl-L-glutamic acid	468.15	
1188-38-1	Carbamylglutamic acid	431.15	
1189-71-5	Chlorosulfonyl isocyanate	229.15	380.15
1189-85-1	Chromic acid (H2CrO4), bis(1,1-dimethylethyl) ester	270.65	
1189-93-1	1,1,3,3,5,5-Hexamethyltrisiloxane		401.15
118909-22-1	Velnacrine maleate	445.15	
1189805-46-6	Mephedrone	505.15	
118993-57-0	4-(4-Hydroxybenzoyl)-2-thiophenesulfonamide	465.65	
119-10-8	1-Methoxy-4-methyl-2-nitrobenzene	281.65	
119-12-0	Pyridaphenthion	328.15	
119-15-3	Disperse Yellow 1	467.15	
119-16-4	3-Methyl-1-(m-nitrophenyl)-5-pyrazolone	458.15	
119-18-6	1-Phenyl-3-carboxy-5-pyrazolone	533.15	
119-23-3	1,4-Diethoxy-2-nitrobenzene	224.15	
119-26-6	(2,4-Dinitrophenyl)hydrazine	467.15	
119-27-7	2,4-Dinitroanisole	367.65	479.15
119-30-2	5-Iodosalicylic acid	463.15	
119-31-3	3-(Dimethylamino)-4-methylphenol	345.4	
119-32-4	4-Methyl-3-nitroaniline	318.65	
119-33-5	4-Methyl-2-nitrophenol	309.65	398.15
119-34-6	4-Amino-2-nitrophenol	404.15	
119-36-8	Methyl salicylate	264.55	495.15
119-39-1	1(2H)-Phthalazinone	461.15	
119-41-5	Efloxate	396.85	
119-42-6	2-Cyclohexylphenol	339.65	423.65
119-45-9	2-[2-[(2-Propen-1-ylamino)carbonyl]phenoxy]acetic acid	393.15	
119-47-1	2,2′-Methylenebis[4-methyl-6-tert-butylphenol]	396.15	
119-48-2	Dimorpholamine	314.65	502.15
119-51-7	1-Phenyl-1,2-propanedione 2-oxime	387.65	
119-52-8	4,4′-Dimethoxybenzoin	385.15	
119-53-9	(±)-Benzoin	410.15	
119-56-2	4-Chlorobenzhydrol	333.9	
119-58-4	4,4′-Bis(dimethylamino)benzhydrol	372.15	
119-59-5	4,4′-Diaminodiphenyl sulfoxide	448.15	
119-60-8	Cyclohexyl ketone	334.15	
119-61-9	Benzophenone	321.65	578.55
119-62-0	2-Amino-1-(4-nitrophenyl)-1,3-propanediol	434.65	
119-63-1	N-(4-Aminophenyl)-N-methylacetamide	337.15	
119-64-2	Tetralin	237.35	480.75
119-65-3	Isoquinoline	299.62	516.35
119-67-5	2-Carboxybenzaldehyde	371.15	
119-68-6	N-Methylanthranilic acid	453.65	
119-75-5	2-Nitrodiphenylamine	348.15	439.15
119-80-2	2,2′-Dithiodibenzoic acid	562.15	
119-81-3	N-(4-Methoxy-2-nitrophenyl)acetamide	390.15	
119-84-6	Dihydrocoumarin	298.15	545.15
119-90-4	Dianisidine	410.15	629.15
119-91-5	2,2′-Biquinoline	467.65	
119-93-7	o-Tolidine	403.15	573.15
119-96-0	N-[2-Hydroxy-5-[4-(hydroxymethyl)-1,3,2-dithiarsolan-2-yl]phenyl]acetamide	437.65	
119-97-1	3-[Ethyl(4-formyl-3-methylphenyl)amino]propanenitrile	333.65	
1190-22-3	1,3-Dichlorobutane		407.15
1190-24-5	Formylurea	441.65	
1190-32-5	N-(2-Chloroacetyl)alanine	399.65	
1190-48-3	Nε-Formyl-L-lysine	487.65	
1190-49-4	Homocitrulline	484.65	
1190-53-0	Buformin hydrochloride	448.65	
1190-63-2	Cetyl stearate	330.15	
1190-73-4	Acetylcysteamine	359.15	
1190-74-5	(Mercaptoethyl)guanidine	464.65	
1190-76-7	cis-Crotononitrile	200.55	380.65
1190-92-7	N,N-Dimethyl-2-nitroethenamine	377.15	
119006-77-8	Flutrimazole	438.65	
1191-04-4	2-Hexenoic acid	309.65	489.65
1191-08-8	1,4-Butanedithiol	219.25	468.65
1191-15-7	Diisobutylaluminum hydride	193.15	
1191-16-8	Prenyl acetate		423.15
1191-25-9	6-Hydroxyhexanoic acid	313.65	410.65
1191-41-9	Ethyl linolenate		470.15
1191-43-1	1,6-Hexanedithiol	303.15	
1191-67-9	1,10-Decanedithiol	293.15	
1191-87-3	2,5,8,11,14,17-Hexaoxaoctadecane		394.65
1191-95-3	Cyclobutanone	222.25	372.15
1191-96-4	Ethylcyclopropane	123.95	309.05
1191-99-7	2,3-Dihydrofuran	538.15	327.65
119168-77-3	Tebufenpyrad	334.65	
119169-78-7	Epristeride	518.65	
1191951-57-1	4-Dodecyl-N-1,3,4-thiadiazol-2-ylbenzenesulfonamide	399.65	
1192-16-1	Thiophene, 2,3-dihydro-, 1,1-dioxide	322.15	380.15
1192-17-2	2,2-Diethyloxirane		380.15
1192-18-3	cis-1,2-Dimethylcyclopentane	219.15	372.65
1192-21-8	1-Methyl-1H-pyrazol-5-amine	344.65	
1192-28-5	Cyclopentanone, oxime	330.95	469.15
1192-30-9	2-(Bromomethyl)tetrahydrofuran		443.15
1192-34-3	1,3-Dihydro-4-methyl-2H-imidazol-2-one	476.65	
1192-37-6	Methylenecyclohexane	166.45	375.65
1192-52-5	4,5-Dichloro-1,2-dithiol-3-one	334.15	
1192-62-7	2-Acetylfuran	306.15	448.15
1192-75-2	N,N′-Diethyleneurea	311.15	
1192-89-8	Bromophenylmercury	548.15	
1192-95-6	N-Methylazepane	412.15	
119290-87-8	Acanthoic acid	408.65	
1193-02-8	4-Aminothiophenol	319.15	416.15
1193-10-8	3-Methylsulfolene	336.65	
1193-11-9	2,2,4-Trimethyl-1,3-dioxolane		372.65
1193-12-0	3,3-Dimethylpiperidine		410.15
1193-17-5	rel-(1R,3R)-3-Methylcyclohexanamine		416.15
1193-18-6	3-Methyl-2-cyclohexen-1-one	252.15	474.15
1193-21-1	4,6-Dichloropyrimidine	340.65	
1193-22-2	6-Amino-4(3H)-pyrimidinone	536.65	
1193-31-3	Tetrahydro-2-methyl-2-(1-methylethyl)furan		415.65
1193-47-1	2,2-Dimethylcyclohexanone	252.65	445.15
1193-54-0	3,4-Dichloro-1H-pyrrole-2,5-dione	452.15	
1193-55-1	2-Methyl-1,3-cyclohexanedione	479.15	
1193-56-2	5-Chloro-6-hydroxy-4(3H)-pyrimidinone	533.15	
1193-65-3	1-Azabicyclo[2.2.2]octan-3-one, hydrochloride (1:1)	567.65	
1193-66-4	2-Methyl-1,4-diazabicyclo[2.2.2]octane		457.65
1193-72-2	1-Bromo-2,4-dichlorobenzene	299.15	508.15
1193-79-9	2-Acetyl-5-methylfuran	275.15	347.15
1193-81-3	1-Cyclohexylethanol	413.15	462.15
1193-82-4	Methyl phenyl sulfoxide	305.15	536.65
1193-92-6	3-Pyridinecarboxaldehyde, oxime	423.15	
119389-05-8	4-(Phenylethynyl)phthalic anhydride	425.8	
1194-02-1	4-Fluorobenzonitrile	307.95	461.95
1194-21-4	2-Amino-6-chloro-4(1H)-pyrimidinone	534.15	
1194-33-8	3,3-Dimethyl-2,6-piperidinedione	403.15	
1194-65-6	2,6-Dichlorobenzonitrile	417.65	543.15
1194-86-1	(αR)-α-Amino-3-thiopheneacetic acid	492.65	