CAS	name	Tm	Tb
33237-73-9	1H-Inden-2-amine, 2,3-dihydro-N-phenyl-, hydrochloride (1:1)	448.15	
33237-74-0	1,3-Propanediamine, N1-(2,3-dihydro-1H-inden-2-yl)-N3,N3-diethyl-N1-phenyl-, hydrochloride (1:1)	393.65	
3324-58-1	Sodium picrate	543.55	
3324-71-8	Dimethylguanidine	469.65	
3324-76-3	3-Hydroxy-2,4,6-cycloheptatrien-1-one	452.65	
33240-96-9	Benzenamine, 3-nitro-, hydrochloride (1:1)	499.15	
33245-13-5	2-Furanacetic acid, α-oxo-, methyl ester	312.65	
33245-39-5	Fluchloralin	315.65	
3325-33-5	1,2,3-Trithiane	317.15	
33252-28-7	6-Chloronicotinonitrile	388.15	
33252-29-8	6-Chloro-2-pyridinecarbonitrile	360.15	
33252-30-1	2-Chloro-4-cyanopyridine	322.15	
33252-32-3	4-Ethyl-2-pyridinamine	340.15	
3326-71-4	2-Furancarboxylic acid, hydrazide	350.15	432.4
33263-43-3	4-Chloro-3-pyridinesulfonamide	429.15	
33265-79-1	1-Piperidineethanol, hydrochloride (1:1)	398.9	
3327-22-8	(3-Chloro-2-hydroxypropyl)trimethylammonium chloride	463.15	
33279-57-1	k-Strophanthoside	472.15	
3328-25-4	Cholesterol 5α-hydroperoxide	415.15	
3328-84-5	(3R,6S,6aS,7R,7aS,10S,12aS,13R,13aR,14S,15R)-1-Ethyltetradecahydro-12a,14-dihydroxy-6-methoxy-3-methyl-8H-13,3,6a-ethanylylidene-7,10-methanooxepino[3,4-i]-1-benzazocin-8-one	537.65	
33284-52-5	3,3′,5,5′-Tetrachlorobiphenyl	435.15	
33284-53-6	2,3,4,5-Tetrachlorobiphenyl	362.65	
33286-22-5	Diltiazem hydrochloride	482.9	
3329-14-4	Piperidine, 1-(3,3-diphenylpropyl)-, hydrochloride (1:1)	489.65	
3329-48-4	3,5-Dimethyl-1-hexen-3-ol		419.65
3329-91-7	Dioscorine	327.65	
333-20-0	Potassium thiocyanate	446.15	
333-27-7	Methyl triflate		372.15
333-29-9	2-[Diethoxyphosphinothioylimino]-1,3-dithiolane	309.15	
333-36-8	1,1′-Oxybis[2,2,2-trifluoroethane]		337.05
333-49-3	2-Thiocytosine	560.65	
333-93-7	Putrescine dihydrochloride	553.15	
3330-14-1	1-[1-[Difluoro(1,2,2,2-tetrafluoroethoxy)methyl]-1,2,2,2-tetrafluoroethoxy]-1,1,2,2,3,3,3-heptafluoropropane		373.15
3330-15-2	1,1,1,2,2,3,3-Heptafluoro-3-(1,2,2,2-tetrafluoroethoxy)propane		314.15
3330-46-9	2,4,6(1H,3H,5H)-Pyrimidinetrione, 5-(2-bromo-2-propen-1-yl)-5-(1-methylbutyl)-, sodium salt (1:1)	435.15	
33305-77-0	N-(tert-Butoxycarbonyl)-4-nitro-L-phenylalanine	379.15	
3331-46-2	9,10-Dihydrobenzo[a]pyren-7(8H)-one	451.15	
3331-54-2	N-(4,5-Dihydro-5-oxo-1-phenyl-1H-pyrazol-3-yl)-2-methyl-2-propenamide	444.15	
3332-27-2	Tetradecyldimethylamine oxide	403.5	
3332-29-4	O-Ethylhydroxylamine hydrochloride	399.15	
33322-20-2	2-(2-Nitro-1-propen-1-yl)furan	321.65	
33325-40-5	3-(Acetylthio)-2-methylpropanoic acid	313.4	
3333-08-2	Piperidinium, 1,1-dimethyl-, iodide (1:1)	607.15	
3333-13-9	4-Allyltoluene	513.15	332.15
3333-14-0	α-Phenylbenzenepropanenitrile	331.15	
3333-15-1	2,3-Diphenylpropanoic acid	361.9	
3333-25-3	2,6-Dibromohydroquinone	436.65	
3333-52-6	2,2,3,3-Tetramethylbutanedinitrile	443.65	
3333-62-8	7-(2H-Naphtho[1,2-d]triazol-2-yl)-3-phenyl-2H-1-benzopyran-2-one	523.65	
3333-67-3	Nickel carbonate (NiCO3)	543.15	
33330-89-1	2-(3,3-Dimethyl-1-triazen-1-yl)benzamide	405.15	
33330-91-5	4-(3,3-Dimethyl-1-triazen-1-yl)benzamide	449.15	
33331-59-8	Ethyl 1-ethyl-1,4-dihydro-7-methyl-4-oxo-1,8-naphthyridine-3-carboxylate	394.35	
33332-28-4	6-Chloro-2-pyrazinamine	426.15	
33332-29-5	5-Chloro-2-pyrazinamine	406.15	
33342-05-1	Gliquidone	454.15	
3335-33-9	1-Methyl-2-(trichloromethyl)benzene	366.65	
3335-98-6	1,3-Dihydro-1-phenyl-2H-indol-2-one	393.9	
33350-73-1	2-Methyl-4′-nitro-1,1′-biphenyl	375.9	
3336-26-3	3-Bromo-4-hydroxy-5-iodobenzonitrile	467.65	
3336-34-3	2,6-Dichloro-3-hydroxybenzonitrile	474.15	
3336-39-8	3,5-Dibromo-4-methoxybenzonitrile	392.65	
3336-41-2	3,5-Dichloro-4-hydroxybenzoic acid	528.65	
3336-49-0	4-Isoquinolinol	496.15	
3336-58-1	Ammonium trifluoroacetate	397.15	
33367-56-5	Acetic acid, 2,2-bis(2-chloroethyl)hydrazide	349.65	
33368-94-4	5-Methyl-2-thioxo-4-imidazolidinone	431.65	
33369-26-5	Ethyl 3-(ethoxycarbonyl)-1,4-dimethyl-1H-pyrrole-2-acetate	346.65	
33369-31-2	Zomepirac	451.65	
33369-45-8	3-Carboxy-1,4-dimethyl-1H-pyrrole-2-acetic acid	493.65	
3337-59-5	Methyl 3,5-dichloro-4-hydroxybenzoate	395.15	
3337-62-0	3,5-Dibromo-4-hydroxybenzoic acid	541.15	
3337-71-1	Asulam	417.15	
3337-86-8	4(3H)-Quinazolinethione	597.65	
3337-87-9	N1,N1-Dimethyl-N2-4-quinazolinyl-1,2-ethanediamine	420.15	
33371-00-5	4-Chloro-6,7,8-trimethoxyquinazoline	375.15	348.15
33373-80-7	2-(Trichloromethyl)oxazolidine	348.15	
33375-68-7	L-Cysteine, S-[(acetylamino)methyl]-, methyl ester, hydrochloride (1:1)	404.15	
3338-24-7	Phosphorodithioic acid, O,O-diethyl ester, sodium salt (1:1)	466.65	
3338-32-7	L-Aspartic acid, N-[(phenylmethoxy)carbonyl]-, 4-(1,1-dimethylethyl) 1-(2,5-dioxo-1-pyrrolidinyl) ester	422.15	
3338-35-0	N-[(Phenylmethoxy)carbonyl]phenylalanine cyanomethyl ester	370.65	
33386-08-2	Buspirone hydrochloride	475.15	
3339-11-5	Tolpropamine hydrochloride	436.15	
3339-73-9	N-Phthaloyl-β-alanine	423.65	
33396-37-1	(3β)-3-[(6-Deoxy-4-O-methyl-α-L-mannopyranosyl)oxy]-14-hydroxybufa-4,20,22-trienolide	488.15	
334-25-8	6-Amino-6-oxohexanoic acid	434.15	
334-48-5	Decanoic acid	304.65	541.85
334-50-9	Spermidine trihydrochloride	530.15	
334-56-5	1-Fluorodecane	238.15	459.35
334-88-3	Diazomethane	128.15	250.15
334-99-6	Trifluoronitrosomethane	76.55	179.15
3340-22-5	N-Phenyl-9-acridinamine	503.65	
3340-93-0	12-Methylbenz[a]acridine	417.15	
3340-94-1	7-Methylbenz[c]acridine	399.15	
33401-87-5	Panose	494.15	
33401-94-4	Pyrantel tartrate	422.15	
33402-03-8	Metaraminol bitartrate	449.65	
33404-34-1	Cellotriose	511.15	
33404-57-8	(2R)-2,3-Dihydro-2,3,3-trimethylnaphtho[1,2-b]furan-4,5-dione	371.65	
33404-78-3	3,6-Diamino-2,3,4,6-tetradeoxy-L-threo-hexonic acid 2-(carboxymethyl)-2-methylhydrazide	388.15	
33404-85-2	(1aS,2′S,3aS,3bR,4R,6aS,7S,7aR)-Hexahydro-4,7-dihydroxy-3a,5,5-trimethylspiro[cyclopenta[4,5]pentaleno[1,6a-b]oxirene-3(3aH),2′-oxiran]-2(1aH)-one	448.65	
33414-33-4	Ethyl N-[10-[3-(diethylamino)-1-oxopropyl]-10H-phenothiazin-2-yl]carbamate	379.65	
33417-17-3	1,3-Dihydro-3-hydroxy-3-(2-oxopropyl)-2H-indol-2-one	439.65	
33417-27-5	2-Amino-9H-fluoren-9-ol	467.65	
33419-42-0	Etoposide	516.65	
3342-98-1	1,2-Dihydro-3-methylbenz[j]aceanthrylen-1-ol	488.65	
33421-39-5	2-Phenyl-3-pyridinecarboxylic acid	441.65	
33421-40-8	5-Phenyl-2-pyridinamine	406.15	
33421-43-1	2,2′-Bipyridine, 1-oxide	332.15	
33421-53-3	2,3-Diphenylpyridine	328.65	
33423-92-6	1,3,6,8-Tetrachlorodibenzo-p-dioxin	492.15	
3343-08-6	3-Methylbenz[j]aceanthrylen-2(1H)-one	476.65	
3343-10-0	3-Methylbenz[j]aceanthrylene	469.65	
3343-24-6	Benzeneundecanoic acid	292.65	
3343-28-0	N-Phthaloyl-DL-glutamic anhydride	468.65	
3343-29-1	N-Phthaloyl-L-glutamine	436.15	
3343-39-3	2-Pyridineethanamine, hydrochloride (1:2)	458.65	
3343-41-7	α-HPMS	478.15	
3343-80-4	(2-Ethyl-3-benzofuranyl)(4-methoxyphenyl)methanone	354.15	
33432-52-9	2-Methyl-4-(3-nitrophenyl)-3-butyn-2-ol	325.1	
33439-45-1	Fluothiuron	386.65	
3344-70-5	1,12-Dibromododecane	314.15	
3344-77-2	12-Bromo-1-dodecanol	302.15	
3345-50-4	2,5-Dihydro-2,5-dioxo-1H-pyrrole-1-carboxamide	430.65	
3345-92-4	1,4-Cyclohexanebis(methylamine), N-(o-chlorobenzyl)-, dihydrochloride, trans-	573.15	
33453-23-5	1-(Cyclopropylmethyl)-6-methoxy-4-phenyl-2(1H)-quinazolinone	388.65	
33456-68-7	4-[2-(3,4-Dihydro-7-methoxy-4,4-dimethyl-1,3-dioxo-2(1H)-isoquinolinyl)ethyl]benzenesulfonamide	474.15	
33462-81-6	Sulfonium, cyclopropyldiphenyl-, tetrafluoroborate(1-) (1:1)	412.15	
33467-73-1	cis-3-Hexenyl formate		428.15
33467-76-4	trans-2-Hepten-1-ol		451.15
3347-22-6	Dithianon	493.15	
3347-62-4	3-Methyl-5-phenylpyrazole	401.15	
33478-30-7	Hexanedioic acid, polymer with 1,4-cyclohexanedimethanol	360.15	
3348-44-5	Chlorobis(dimethylamino)phosphine	240.15	
3349-63-1	2-Indanone, oxime	426.65	
3349-64-2	1(2H)-Naphthalenone, 3,4-dihydro-, oxime	376.65	
335-05-7	Trifluoromethanesulfonyl fluoride		251.45
335-21-7	1,1,2,2,3,3,4,4,5,5,6-Undecafluoro-6-(1,1,2,2,2-pentafluoroethyl)cyclohexane		372.55
335-27-3	Perfluoro(1,3-dimethylcyclohexane)	203.15	375.15
335-35-3	2,2,3,3,4,4,5,5,6-Nonafluoro-6-(1,1,2,2,3,3,3-heptafluoropropyl)tetrahydro-2H-pyran		368.15
335-36-4	Perfluoro-2-butyltetrahydrofuran		375.75
335-44-4	2,2,3-Trichloro-1,1,1,3,4,4,4-heptafluorobutane	277.15	371.15
335-56-8	1-Bromoperfluorohexane		371.15
335-57-9	Perfluoroheptane	195.15	355.65
335-58-0	1,1,1,2,2,3,3,4,4,5,5,6,6,7,7-Pentadecafluoro-7-iodoheptane		410.65
335-64-8	Perfluorooctanoyl chloride	347.65	404.15
335-65-9	1,1,1,2,2,3,3,4,4,5,5,6,6,7,7,8,8-Heptadecafluorooctane		391.65
335-66-0	2,2,3,3,4,4,5,5,6,6,7,7,8,8,8-Pentadecafluorooctanoyl fluoride		376.15
335-67-1	Perfluorooctanoic acid	326.15	462.15
335-70-6	1,8-Diiodoperfluorooctane	348.65	
335-76-2	Perfluorodecanoic acid	342.65	
335-99-9	2,2,3,3,4,4,5,5,6,6,7,7-Dodecafluoro-1-heptanol	259.15	442.65
3350-19-4	N-[(1,1-Dimethylethoxy)carbonyl]-L-leucine 4-nitrophenyl ester	356.65	
3350-30-9	Cyclononanone	307.15	
3350-78-5	3-Methyl-2-butenoyl chloride		419.15
33509-43-2	4-Amino-6-(1,1-dimethylethyl)-3,4-dihydro-3-thioxo-1,2,4-triazin-5(2H)-one	488.15	
3351-28-8	1-Methylchrysene	529.65	
3351-30-2	4-Methylchrysene	424.4	
3351-31-3	3-Methylchrysene	443.4	
3351-32-4	2-Methylchrysene	502.65	
3351-86-8	Fucoxanthin	441.15	
3352-54-3	4,4′′,4′′′′,4′′′′′′-Silanetetrayltetrakis[1,1′-biphenyl]	556.4	873.15
3352-87-2	N,N-Diethyldodecanamide	505.65	
33522-69-9	Verbenyl acetate		545.25
33522-95-1	(-)-Noroxymorphone	584.65	
33524-31-1	2,5-Dimethoxybenzyl alcohol	319.65	
33524-89-9	3,5-Diacetyl-4,6-dihydroxy-2H-pyran-2-one	427.65	
33525-72-3	N-Butyl-2-pyridinamine	315.15	
33527-99-0	3,8-Dihydro-3,8-dimethylcyclobuta[b]quinoxaline-1,2-dione	598.65	
3353-12-6	4-Methylpyrene	416.4	
3353-68-2	1,3-Bis(3-carboxypropyl)tetramethyldisiloxane	320.65	
3353-69-3	1,2-Bis(dichloromethylsilyl)ethane	305.15	482.15
33530-84-6	7-Ketopregnenolone	480.65	
33538-71-5	Venturicidin A	414.15	
3354-58-3	2-Methyl-6-(2-propen-1-yl)phenol	350.15	505.15
33543-31-6	2-Methylfluoranthene	345.65	
33543-62-3	3-Methoxy-N-methylbenzeneethanamine		344.15
33543-90-7	4-Oxo-4H-1-benzopyran-2-carbonitrile	405.65	
33560-48-4	2-Chloro-N-(3,5-dichlorophenyl)acetamide	410.65	
33564-31-7	Diflorasone diacetate	495.15	
3357-42-4	5-Phenyl-1H-1,2,4-triazole	450.15	
33580-30-2	2-Propanol, 1-[(3,4-dihydro-2H-1-benzothiopyran-8-yl)oxy]-3-[(1,1-dimethylethyl)amino]-, hydrochloride (1:1)	454.65	
33587-20-1	1,1′-(1-Methyl-1,2-ethanediyl) dihexadecanoate	342.65	
33587-21-2	1,1′-(1,4-Butanediyl) dioctadecanoate	319.65	
33588-54-4	1-[3-(Acetyloxy)-5-bromo-1H-indol-1-yl]ethanone	397.4	
33599-32-5	1-Butyl-2,4-imidazolidinedione	350.15	
336-08-3	2,2,3,3,4,4,5,5-Octafluorohexanedioic acid	407.15	
336-12-9	1,2-Dibromo-1,2,3,3,4,4,5,5,6,6-decafluorocyclohexane	304.9	412.9
336-19-6	1,2-Dichloro-3,3,4,4,5,5,6,6-octafluorocyclohexene	203.15	386.15
336-50-5	1,1,2,2-Tetrachloro-3,3,4,4-tetrafluorocyclobutane	356.5	
336-59-4	Heptafluorobutyric anhydride	230.15	379.65
3360-41-6	Benzenebutanol		413.15
33602-00-5	3-[4-(Hexyloxy)phenyl]-2-propenoic acid	452.15	
33605-72-0	N-(Benzyloxycarbonyl)-L-aspartyl-L-phenylalanine methyl ester	394.15	
33605-76-4	N-Formyl-L-α-aspartyl-L-phenylalanine 2-methyl ester	412.65	
3361-13-5	4-Methyl-7-(1-oxopropoxy)-2H-1-benzopyran-2-one	423.15	
3362-45-6	Noxiptiline		435.15
33622-41-2	3-(Dimethylamino)-2-methyl-1-propanol		436.65
33625-43-3	Phenol, 2,5-dimethyl-4-(4-morpholinylmethyl)-, hydrochloride (1:1)	481.65	
33626-25-4	(±)-cis-Pinane		438.9
33626-98-1	2-Naphthalenecarboxylic acid, 6-bromo-, methyl ester	399.15	
33627-41-7	1-O-Acetylbritannilactone	398.2	
33629-47-9	Butralin	333.15	408.15
3363-56-2	2,5,6-Trimethylbenzimidazole	506.65	
3363-58-4	Nifurfoline	479.15	
33630-99-8	3-Amino-2(1H)-pyridinone	402.15	
33632-27-8	1-Acetyl-5-nitroindoline	447.65	
33634-55-8	(SP-4-2)-Diiodobis(methanamine)platinum	443.65	
33637-20-6	Tetraethylbenzene		523.15
33639-45-1	4,4-Dimethoxy-1-butyne		402.65
33646-40-1	2-Hydroxy-2-(4-methoxyphenyl)acetonitrile	330.65	
3366-61-8	Acetylbenzidine	476.55	
3366-65-2	2-Phenanthrenamine	448.65	
3366-72-1	P-(4-Methylphenyl)phosphonic acid	458.15	
3366-95-8	Secnidazole	349.15	
33662-58-7	Methyl 2,4-dihydroxy-3-methylbenzoate	407.15	
33663-41-1	Benzenamine, 2,5-dichloro-, hydrochloride (1:1)	463.15	
33665-90-6	Acesulfame	396.4	
33667-88-8	4-Methyl-N-(4-nitrophenyl)benzamide	475.15	
33669-76-0	4-Isopropyl-1-methyl-1,2-cyclohexanediol	361.65	
3367-47-3	1,4-Bis(2-methylphenyl)piperazine	447.15	
33671-46-4	Clotiazepam	392.15	
33672-51-4	Isopropyl propyl disulfide		405.25
33676-00-5	Hypophyllanthin	402.65	
3368-13-6	Benzolamide	512.65	
3368-16-9	α-Phenylcinnamic acid	445.65	
3368-21-6	3-[4-(1-Methylethyl)phenyl]-2-propenoic acid	438.15	
3368-87-4	Vallesamine	436.65	
3369-52-6	Endosulfan ether	506.15	
33693-04-8	Terbumeton	396.65	
33693-48-0	4-(Benzyloxy)-3-methoxybenzyl alcohol	343.65	
33695-57-7	2,3-Dihydro-1H-indene-1-carboxamide	439.65	
33696-00-3	4-Bromo-1-methoxy-2-nitrobenzene	359.15	
33697-81-3	3-Chloro-4-hydroxyphenylacetic acid	380.15	
337-02-0	(11β,16α)-9-Fluoro-11,16,17,21-tetrahydroxypregn-4-ene-3,20-dione	531.65	
337-03-1	(11β)-9-Fluoro-11,17-dihydroxypregn-4-ene-3,20-dione	549.15	
337-28-0	1-Ethoxy-2,2,3,3,3-pentafluoro-1-propanol		376.15
3370-35-2	N-(Hydroxymethyl)octadecanamide	383.65	
33704-61-9	(±)-Cashmeran		559.25
33708-72-4	Pachypodol	444.65	
3371-33-3	Ethanone, 1-(3,5-dihydroxyphenyl)-2-[[2-(4-hydroxyphenyl)-1-methylethyl]amino]-, hydrobromide (1:1)	493.15	
3371-56-0	14-Hydroxymorphine	527.15	
3371-62-8	Bis(trimethoxysilylpropyl) fumarate		385.65
3371-85-5	Voacamine	494.65	
33715-52-5	Phenoxyaluminum dichloride	450.65	
33718-79-5	Benzoxazolium, 3-methyl-2-[2-[(3-methyl-5-phenyl-2(3H)-benzoxazolylidene)methyl]-1-buten-1-yl]-5-phenyl-, methyl sulfate (1:1)	553.15	
33719-74-3	1,3-Dichloro-5-methoxybenzene	314.15	
33721-54-9	N-(2-Methoxy-5-nitrophenyl)acetamide	451.65	
33726-04-4	(OC-6-21)-Pentacarbonyl[(isocyano-κC)methane]chromium	333.15	
3373-00-0	6-Hydroxy-1,2,3,4-tetrahydroquinoline	433.15	
3373-03-3	4,4′-Heptylidenebis[phenol]	383.15	
3373-10-2	1,4-Bis(1,1-dimethylpropyl)benzene		537.15
3373-59-9	L-Threonine methyl ester	486.65	
33734-57-5	Peroxyoctanoic acid	304.4	
3374-04-7	Alanine, N,N-bis(2-chloroethyl)-, hydrochloride (1:1)	369.65	
3374-22-9	Cysteine	496.65	
3375-11-9	Diphenyl sulfone 3,3′-disulfonyl hydrazide	428.15	
3375-22-2	1,3-Dichloro-2-methyl-1-propene		405.65
3375-31-3	Palladium diacetate	453.65	
3375-38-0	1,6-Diphenyl-1,6-hexanedione	380.15	
33752-16-8	Tetrachloropyridine		523.15
33754-49-3	Zolazepam hydrochloride	521.15	
33757-42-5	N-8-Quinolinylacetamide	375.65	
33758-39-3	N-Ethyl-N-phenylcarbamic chloride	322.65	
3376-24-7	N-tert-Butyl-α-phenylnitrone	349.15	
3376-50-9	Pyridine, 2,4,6-trimethyl-, 1-oxide	318.65	
3376-95-2	2-Ethyl-4-pyridinecarboxamide	404.15	
33765-68-3	Oxendolone	425.65	
33768-43-3	N-(2-Formylphenyl)benzamide	340.65	
3377-20-6	1,3-Diethyl 2-methylenepropanedioate	409.15	483.15
3377-21-7	1,3-Dimethyl 2-methylenepropanedioate		473.15
3377-86-4	2-Bromohexane		417.15
3377-87-5	3-Bromohexane		415.15
3377-92-2	Vinyl pivalate		386.65
3378-18-5	Sulfonium, triethyl-, bromide (1:1)	424.65	
3378-71-0	2,5-Dimethylpyrrolidine		379.65
3378-82-3	1-Bromo-2-naphthalenecarboxaldehyde	392.65	
33786-47-9	(2E)-2-Propyl-2-pentenoic acid	312.15	
33788-22-6	4-Hydroxymellein	382.4	
3379-38-2	1,3-Diphenoxybenzene	334.65	
33795-18-5	4-Hydroxybenzenephosphonic acid	450.15	
33797-51-2	Methanaminium, N-methyl-N-methylene-, iodide	511.15	
338-38-5	Tetrapropylammonium tetrafluoroborate(1-)	522.15	
338-65-8	1-Chloro-2,2-difluoroethane		309.15
338-69-2	D-Alanine	565.15	
338-75-0	2,3-Dichloro-1,1,1-trifluoropropane		349.85
338-81-8	1,1,2,2,3,3,3-Heptafluoro-N,N-bis(1,1,2,2,2-pentafluoroethyl)-1-propanamine		366.15
338-83-0	Perfluorotripropylamine	221.15	403.15
338-84-1	Perfluorotripentylamine		488.9
338-95-4	Isoflupredone	537.65	
338-98-7	Isoflupredone acetate	518.15	
3380-30-1	4,4′-Dichloro-2-hydroxydiphenyl ether	351.65	324.65
3380-34-5	Triclosan	328.8	325.15
3380-44-7	4,5-Dichloro-2-(2,4-dichlorophenoxy)phenol	362.65	
3380-62-9	N,N-Dimethyl-4-(2,3,4,9-tetrahydro-1H-pyrido[3,4-b]indol-1-yl)benzenamine	509.15	
3380-68-5	5-Methoxy-7H-furo[3,2-g][1]benzopyran-7-one	490.65	
3380-79-8	1H-Pyrido[3,4-b]indole, 1-(2-chlorophenyl)-2,3,4,9-tetrahydro-, hydrochloride (1:1)	540.65	
33803-42-8	Gnaphaliin	419.65	
33809-77-7	2-(Acetylamino)benzamide	453.15	
3381-26-8	11-Heneicosanol	345.25	
3381-54-2	3β-Methanesulfonyl-5-cholestene	391.65	
3381-87-1	2-(Phenylmethoxy)benzenemethanol	310.15	
3381-88-2	Methasterone	412.9	
33813-20-6	Ethylenethiuram monosulfide	398.65	
33817-09-3	(-)-Methamphetamine	312.15	
3382-18-1	3,4-Dihydro-6,7-dimethoxyisoquinoline		479.65
3382-95-4	(3α,14β,16α)-14,15-Dihydro-14-hydroxyeburnamenine-14-methanol	453.15	
3382-99-8	2,6-Di-2-propen-1-ylphenol	396.65	
33828-98-7	1,3-Dihydro-3-(phenylimino)-2H-indol-2-one	506.15	
3383-21-9	3,5-Di-tert-butyl-1,2-benzoquinone	386.65	
3383-30-0	N-[4-Hydroxy-2-methyl-5-(1-methylethyl)phenyl]acetamide	450.65	
3383-96-8	Temephos	303.65	
33832-98-3	2-(Hydroxymethyl)benzamide	418.15	
33836-43-0	Ethyl 8-ethyl-5,8-dihydro-5-oxo-2-(1-pyrrolidinyl)pyrido[2,3-d]pyrimidine-6-carboxylate	475.15	
3384-04-1	(3-Chloropropoxy)benzene	285.15	523.15
33842-02-3	Phosgeniminium chloride	458.15	
33844-22-3	4-Methoxy-2-nitrobenzamide	434.4	
3385-34-0	Ethyl 4,6-dimethyl-2-oxo-2H-pyran-5-carboxylate	292.15	436.15
3385-78-2	Trimethylindium	361.15	339.65
3385-94-2	Bis(trimethylsilyl) sulfide		436.15
33857-23-7	Amiprophos	325.15	
33857-26-0	2,7-Dichlorodibenzo-p-dioxin	482.65	
33857-28-2	2,3,7-Trichlorodibenzo[b,e][1,4]dioxin	435.15	
3386-00-3	Pregn-5-ene-3,20-dione, 17-hydroxy-, cyclic 3,20-bis(1,2-ethanediyl acetal)	483.9	
3386-04-7	Pregna-4,17(20)-dien-3-one, 11,21-dihydroxy-6-methyl-, (6α,11β)-	451.65	
3386-18-3	3,6,9,12,15,18,21,24-Octaoxahexacosane-1,26-diol	297.75	
3386-33-2	1-Chlorooctadecane	301.75	621.15
33868-03-0	1,7-Dimethyluric acid	655.15	
3387-26-6	3,4-Furandicarboxylic acid	490.65	
33871-62-4	4,4′-Sulfonylbis[N,N-dimethylbenzenamine]	532.65	
33872-70-7	Hydroxyethylenediaminetriacetic acid	488.15	
33877-05-3	Ethyl 3-(2-methoxyphenyl)-2-propenoate		445.15
33878-99-8	(+)-Wieland-Miescher ketone	322.15	
3389-21-7	3-(2-Bromoethyl)indole	369.65	
3389-71-7	1,2,3,4,7,7-Hexachlorobicyclo[2.2.1]hepta-2,5-diene	269.15	409.65
33892-75-0	5-Methoxy-1-tetralone	362.4	
33893-36-6	N-(2-Phenylethyl)methanesulfonamide	331.15	
33898-93-0	Ethanol, 2-(ethylphenylamino)-, 1-(N-phenylcarbamate)	370.15	
339-43-5	Carbutamide	417.65	
339-44-6	Glymidine	426.15	
339-59-3	Benzoic acid, 4-(trifluoromethyl)-, hydrazide	393.65	
339-72-0	L-Cycloserine	426.65	
3390-12-3	2,4-Dimethyl-1,3-dioxolane		390.65
3390-13-4	2-Propyl-1,3-dioxolane		429.15
3390-61-2	Trimethylpentaphenyltrisiloxane	248.15	
33901-46-1	2-(4-Nitrophenoxy)acetonitrile	342.15	
3391-80-8	Oleanolic acid 3-O-β-D-glucopyranoside	485.65	
3391-83-1	1,7-Dioxacycloheptadecan-8-one	308.15	
3391-90-0	(-)-Pulegone		496.65
3391-99-9	L-Isoleucine, N-[(phenylmethoxy)carbonyl]-, 2,5-dioxo-1-pyrrolidinyl ester	388.65	
33912-87-7	N-[(Phenylmethoxy)carbonyl]glycyl-L-valine	418.15	
3392-05-0	tert-Butyloxycarbonyl-L-alanine-N-hydroxysuccinimide	416.65	
3392-07-2	N-(tert-Butyloxycarbonyl)glycine N-hydroxysuccinimide ester	442.15	
3392-08-3	L-Isoleucine, N-[(1,1-dimethylethoxy)carbonyl]-, 2,5-dioxo-1-pyrrolidinyl ester	365.65	
3392-09-4	N-[(1,1-Dimethylethoxy)carbonyl]-L-leucine 2,5-dioxo-1-pyrrolidinyl ester	389.15	
3392-10-7	1,2-Pyrrolidinedicarboxylic acid, 1-(1,1-dimethylethyl) 2-(2,5-dioxo-1-pyrrolidinyl) ester, (2S)-	408.65	
3392-11-8	N-[(1,1-Dimethylethoxy)carbonyl]-L-tryptophan 2,5-dioxo-1-pyrrolidinyl ester	426.65	
3392-12-9	L-Valine, N-[(1,1-dimethylethoxy)carbonyl]-, 2,5-dioxo-1-pyrrolidinyl ester	401.65	
3392-97-0	2,6-Dimethoxybenzaldehyde	371.65	558.15
33922-75-7	3,4-Dimethyl-2(5H)-thiophenone	311.65	
3393-59-7	4,6,7-Trichloro-2-(trifluoromethyl)-1H-benzimidazole	515.15	
3393-64-4	4-Hydroxy-3-methyl-2-butanone		365.65
3393-72-4	3,4-Dimethyl-8-quinolinamine	371.65	
3393-78-0	1,1′-Thiobis[4-bromobenzene]	388.15	541.15