CAS	name	Tm	Tb
150-77-6	N,N,N′,N′-Tetraethylethylenediamine	465.15	465.15
150-78-7	1,4-Dimethoxybenzene	332.15	485.75
150-83-4	Sodium 3-hydroxybutyrate	433.15	
150-86-7	Phytol		476.65
150-98-1	1-Pentanaminium, N,N,N-trimethyl-, bromide (1:1)	447.65	
1500-85-2	7-Deazaadenine	527.65	
1500-91-0	1-(4-Ethyl-3,5-dimethyl-1H-pyrrol-2-yl)ethanone	387.65	
1500-94-3	1-(2,5-Dimethyl-1H-pyrrol-3-yl)ethanone	362.15	
15001-27-1	4-(3,4-Dimethoxyphenyl)-3-buten-2-one	358.65	
15006-14-1	(21α)-21,22-Dihydrostrychnidin-10-one	482.65	
1501-05-9	δ-Oxobenzenepentanoic acid	400.4	
1501-82-2	Cyclododecene	372.4	
1501-84-4	Rimantadine hydrochloride	647.15	
15014-25-2	Dibenzyl malonate		507.65
15016-42-9	B-(2-Ethenylphenyl)boronic acid	381.65	
15016-43-0	(3-Vinylphenyl)boronic acid	425.65	
15018-52-7	1,3-Dimethyl-5-(phenylmethyl)-2,4,6(1H,3H,5H)-pyrimidinetrione	390.15	
15018-56-1	5-Bromo-6-methyl-2,4(1H,3H)-pyrimidinedione	520.15	
15018-59-4	5-Bromo-1,3,6-trimethyl-2,4(1H,3H)-pyrimidinedione	409.65	
15018-62-9	5-Bromo-1,2,3,6-tetrahydro-2,6-dioxo-4-pyrimidinecarboxylic acid	558.15	
15018-66-3	4-Quinazolinamine	545.15	
1502-03-0	Cyclododecanamine	301.15	405.65
1502-05-2	Cyclodecanol	313.65	
1502-06-3	Cyclodecanone	301.15	
1502-10-9	N-Methyl-7-(methylimino)-1,3,5-cycloheptatrien-1-amine	335.15	
1502-22-3	Cyclohexenylcyclohexanone	195.15	538.15
1502-95-0	(-)-Heroin hydrochloride	516.65	
15020-57-2	4-Hydroxy-N,N-dimethylbenzenesulfonamide	368.15	
15021-44-0	Guanidine, N-(2,2-diethoxyethyl)-, sulfate (1:1)	424.65	
15022-08-9	Allyl carbonate		415.15
15024-10-9	4-Methylphenyl 4-chlorobenzoate	370.65	
15028-16-7	2-Amino-2,3-dihydro-1H-inden-1-ol	444.65	
15029-30-8	β-Oxo-1-piperidinepropanenitrile	361.65	
15029-32-0	4-(Cyanoacetyl)morpholine	360.15	
1503-49-7	4-Cyanobenzophenone	380.65	
1503-53-3	5-Bromosalicylic acid acetate	333.15	
1503-54-4	2-(Acetyloxy)-5-iodobenzoic acid	439.15	
1503-87-3	Cyclohexaneacetamide	441.65	
1503-91-9	N-(4-Chlorophenyl)-N-hydroxyacetamide	384.65	
150374-95-1	Propanoic acid, 2,2-dimethyl-, 4-[[[2-[[(carboxymethyl)amino]carbonyl]phenyl]amino]sulfonyl]phenyl ester, sodium salt (1:1)	379.15	
15038-67-2	2,2′-Sulfonylbis[phenol]	464.15	
1504-55-8	2-Methyl-3-phenyl-2-propen-1-ol	297.65	359.65
1504-58-1	3-Phenyl-2-propyn-1-ol	393.65	410.65
1504-63-8	3-(4-Nitrophenyl)-2-propen-1-ol	400.9	
1504-69-4	Ethyl 3-(4-ethoxyphenyl)-2-propenoate	311.85	
1504-74-1	2-Methoxycinnamaldehyde	317.65	
1504-75-2	4-Methylcinnamaldehyde	320.15	
15042-77-0	1-(1,1-Dimethylethyl) 2-carboxybenzenecarboperoxoate	330.4	
15045-43-9	2,2,5,5-Tetramethyltetrahydrofuran		385.15
15049-85-1	AEDP	540.65	
1505-50-6	3-(4-Methylphenyl)propionic acid	390.65	
1505-52-8	3-Methylbenzo[b]thiophene-2-acetic acid	424.35	
1505-95-9	α-[2-(Dimethylamino)ethyl]-α-(1-methylethyl)-1-naphthaleneacetamide	407.15	
1506-12-3	Butidrine hydrochloride	402.65	
1506-15-6	1,2,3,4,5,6-Hexachloro-7-methoxynaphthalene	458.15	
1506-47-4	4,4′-(1,2-Ethanediyl)bis[2,6-piperazinedione]	570.65	
1506-53-2	N-Dodecyl-2-propenamide	328.65	
1506-54-3	Octadecylacrylamide	342.15	
15062-34-7	6-Bromothymol	328.15	
15066-77-0	1-Hexanaminium, N,N,N-trimethyl-, iodide (1:1)	439.15	
1507-14-8	3,7-Dihydro-1-(2-hydroxyethyl)-3,7-dimethyl-1H-purine-2,6-dione	438.65	
1508-45-8	Mitopodozide	383.15	
1508-65-2	Oxybutynin hydrochloride	402.65	
1508-75-4	Tropicamide	369.65	
1508-76-5	Procyclidine hydrochloride	434.65	
1508-88-9	7-(Acetyloxy)-3-(4-methoxyphenyl)-4-phenyl-2H-1-benzopyran-2-one	449.65	
15085-20-8	2,3-Dihydro-7-methyl-1H-indene-4-carbonitrile	345.15	
15087-24-8	Benzylidenecamphor	370.15	583.15
15089-03-9	Benzoic acid, 4-methoxy-, 2-phenylhydrazide	448.15	
15089-07-3	Benzoic acid, 4-chloro-, 2-phenylhydrazide	401.65	
15089-84-6	3-(Acetylamino)-5-aminobenzoic acid	506.65	
1509-34-8	L-Alloisoleucine	551.15	
1509-35-9	D-Alloisoleucine	553.15	
1509-92-8	N-Acetyl-D-methionine	377.15	
15091-30-2	Thiophene, 3,4-dibromotetrahydro-, 1,1-dioxide	413.15	
15096-52-3	Cryolite	1266.65	
151-00-8	Propanal, 2-methyl-, oxime		414.65
151-01-9	Ethyl xanthate	413.15	
151-06-4	Chlorphentermine hydrochloride	507.15	
151-10-0	1,3-Dimethoxybenzene	221.15	490.65
151-16-6	(2-Aminoethyl)isothiourea	466.15	
151-18-8	3-Aminopropionitrile		458.15
151-19-9	3,6-Dimethyl-3-octanol	205.65	475.35
151-21-3	Sodium dodecyl sulfate	478.65	
151-38-2	(Acetato-κO)(2-methoxyethyl)mercury	314.15	
151-41-7	Lauryl sulfate	299.15	
151-50-8	Potassium cyanide	907.15	1898.15
151-56-4	Aziridine	199.15	329.65
151-63-3	Acetonitrile, 2-amino-, sulfate (1:1)	374.15	
151-67-7	(±)-Halothane	155.15	323.35
151-68-8	(6α)-17-(Acetyloxy)-6-methylpregna-1,4-diene-3,20-dione	498.9	
151-69-9	(6α)-17-(Acetyloxy)-6-chloropregna-1,4-diene-3,20-dione	477.15	
151-83-7	2,4,6(1H,3H,5H)-Pyrimidinetrione, 1-methyl-5-(1-methyl-2-pentynyl)-5-(2-propenyl)-	369.15	
151-88-2	2-(Hydroxymethyl)-2-phenyl-1H-indene-1,3(2H)-dione	435.65	
1510-16-3	1-Dodecanesulfonic acid	325.15	
1510-20-9	Cholesterol succinate	451.65	
1510-21-0	Cholesteryl hemisuccinate	448.4	
1510-24-3	4-Isothiocyanato-1,1′-biphenyl	338.15	
1510-29-8	Benzoic acid, 4-(2-methylpropoxy)-, 3-(diethylamino)-1,2-dimethylpropyl ester, hydrochloride (1:1)	388.65	
15100-75-1	L-Phenylalanine, 1,1-dimethylethyl ester, hydrochloride (1:1)	482.65	
15100-82-0	Acetamide, 2-[(6-bromo-2-naphthalenyl)oxy]-N-[2-(dimethylamino)ethyl]-, hydrochloride (1:1)	474.15	
15102-42-8	2,3-Dibromopropionamide	405.65	
15104-61-7	1,1,2,3,3-Pentachloropropane	263.15	472.15
15106-65-7	Ethyl 2-cyano-2-(2-phenyldiazenyl)acetate	353.65	
151096-09-2	Moxifloxacin	513.15	
1511-16-6	1-Butanone, 4-[4-(4-chlorophenyl)-4-hydroxy-1-piperidinyl]-1-(4-fluorophenyl)-, hydrochloride (1:1)	499.9	
1511-62-2	Bromodifluoromethane	128.15	257.65
15110-74-4	2,5-Dinitro-9H-fluorene	480.15	
15111-56-5	Ethyl 3-cyclohexene-1-carboxylate		467.65
15112-89-7	N,N,N′,N′,N′′,N′′-Hexamethylsilanetriamine		419.65
151140-96-4	Avitriptan	446.65	
15115-60-3	4-Bromo-1-indanone	367.65	
15116-17-3	4-Isoamylresorcinol	341.15	
15118-03-3	Forsterite	2083.15	
15119-34-3	3-Cyanocoumarin	458.65	
15119-62-7	Ethanethioic acid, S-(4-nitrophenyl) ester	354.65	
15119-66-1	3,3-Diethyl-2,4-pentanedione		476.65
1512-30-7	1,1-Difluoromethanesulfonyl chloride		370.15
15120-50-0	(TB-5-11)-Pentamethylantimony	256.15	399.65
15121-78-5	α-Methylolbenzoin	358.65	
15121-84-3	2-Nitrobenzeneethanol	275.15	540.15
15122-58-4	Proustite (Ag3(AsS3))	759.15	
15123-77-0	Pyrargyrite (SbAg3S3)	746.15	
15128-82-2	3-Hydroxy-2-nitropyridine	340.15	
15128-90-2	3-Hydroxy-6-methyl-2-nitropyridine	378.65	
1513-31-1	N-(4-Chlorophenyl)-1,1-difluoromethanesulfonamide	365.15	
1513-44-6	2-Amino-4-(trifluoromethyl)benzenesulfonic acid	606.65	
1513-65-1	2,6-Difluoropyridine		398.15
15130-85-5	Inokosterone	528.15	
15131-43-8	(4-Butoxy-2-hydroxyphenyl)phenylmethanone	329.65	
15131-80-3	2,2′-Dihydroxychalcone	433.15	
151319-34-5	Zaleplon	458.15	
1514-18-7	4-Fluoro-9H-fluoren-9-one	433.15	
1514-42-7	Acetyl fluoride, fluoro-		323.9
1514-82-5	2-Bromo-3,3,3-trifluoro-1-propene		306.4
1514-87-0	Methyl 2-chloro-2,2-difluoroacetate		353.15
15140-27-9	Estra-1,3,5(10)-triene-3,17-diol (17β)-, 17-cyclohexanecarboxylate	427.65	
15148-80-8	2-Propanol, 1-(2-chloro-5-methylphenoxy)-3-[(1,1-dimethylethyl)amino]-, hydrochloride (1:1)	494.15	
15149-10-7	2-(4-Methylphenoxy)ethanol	317.65	
1515-14-6	1,1,1,3,3,3-Hexafluoro-2-methyl-2-propanol		334.15
1515-72-6	N-Butylphthalimide	307.15	584.95
1515-80-6	Methyl 2,4-hexadienoate	288.15	453.15
1515-81-7	1-Methoxy-4-(methoxymethyl)benzene		380.65
1515-95-3	1-Ethyl-4-methoxybenzene		471.15
15150-25-1	N-Cyanobenzamide	414.65	
15158-11-9	Cu2+	527.15	
1516-01-4	2,4-Hexadienenitrile	419.15	
1516-08-1	Ethanol-d6		351.4
1516-21-8	1-Methoxy-4-nitrosobenzene	297.15	
1516-27-4	2-Propen-1-aminium, N,N,N-trimethyl-, chloride (1:1)	458.65	
1516-32-1	N-Butylthiourea	352.15	
1516-37-6	(2-Methoxyphenyl)thiourea	429.15	
1516-55-8	(T-4)-Trichloro(N,N-dimethylmethanamine)boron	511.65	
1516-60-5	4-Nitrophenyl azide	344.15	
1516-74-1	2-Azido-1H-benzimidazole	455.15	
1516-80-9	1,1′,1′′-(Ethoxysilylidyne)tris[benzene]	338.15	617.15
15165-67-0	(+)-Dichlorprop	395.65	
1517-63-1	4-Methylbenzhydrol	325.15	
1517-66-4	(+)-3-Methyl-2-butanol		381.65
1517-67-5	(2S)-3,3-Dimethyl-2-butanol		391.65
1517-69-7	(+)-1-Phenylethanol	283.15	371.15
1517-72-2	1-(1-Naphthyl)ethanol	337.15	
15170-57-7	Platinum acetylacetonate	512.55	
15171-48-9	2-Methyl-2,5-dioxo-1,2-oxaphospholane	370.65	
15176-29-1	Edoxudine	425.65	
15177-62-5	Cyclohexanecarboxylic acid, 2-methyl-, trans-	444.15	
15179-32-5	Sulfur fluoride hypofluorite (SF5(FO)), (OC-6-21)-		238.05
1518-15-6	2,2′-(1,4-Cyclohexanediylidene)bis[propanedinitrile]	489.65	
1518-16-7	Tetracyanoquinodimethane	567.9	
1518-58-7	Diethylammonium diethyldithiocarbamate	354.15	398.15
1518-62-3	2,4-Dihydroxybutanoic acid	441.15	
1518-75-8	3-Propylthiophene	185.02	434.15
1518-84-9	2-Cyclopentylphenol	307.65	422.15
15180-00-4	Prednival	484.65	
15181-11-0	3,5-Di-tert-butyltoluene	304.6	508.65
15181-13-2	Benzene, 1-ethyl-3,5-diisopropyl-		505.55
15182-67-9	1,2-Dihydro-1-(2-methoxyphenyl)-5H-tetrazole-5-thione	438.15	
15182-83-9	7-Chloro-5-methyl-2H-1,4-benzothiazin-3(4H)-one	458.65	
1519-36-4	1,4-Dimethyl-9,10-anthracenedione	413.65	
1519-39-7	(+)-Methyl p-tolyl sulfoxide	348.65	
1519-45-5	Phosphonium, 1,1′-(1,2-ethanediyl)bis[1,1,1-triphenyl-, bromide (1:2)	584.65	
1519-70-6	N,N′′-1,4-Phenylenebis[thiourea]	508.15	
15190-10-0	α-Phenyl-4-morpholineacetonitrile	340.65	
15190-13-3	α-(4-Methoxyphenyl)-4-morpholineacetonitrile	352.65	
15190-14-4	α-(4-Methoxyphenyl)-1-piperidineacetonitrile	348.15	
15191-21-6	N-Formyl-L-histidine	476.15	
15199-26-5	2-[(4-Methylphenyl)thio]-1H-isoindole-1,3(2H)-dione	473.65	
15199-41-4	1,2-Cyclododecanediol	435.15	
152-02-3	Levallorphan	454.15	
152-11-4	Verapamil hydrochloride	405.15	
152-16-9	Octamethyl	290.15	
152-43-2	Quinestrol	380.65	
152-47-6	Sulfalene	449.15	
152-53-4	Chlorcycloguanil	477.65	
152-58-9	11-Deoxycortisol	488.15	
152-62-5	Dydrogesterone	442.65	
152-72-7	(±)-Acenocoumarol	470.65	
152-84-1	Ruberythric acid	533.15	
152-93-2	Vicine	513.65	
152-95-4	Sophoricoside	569.15	
152-97-6	Flucortolone	461.15	
1520-21-4	4-Aminostyrene	296.65	
1520-27-0	N-(4-Hydroxyphenyl)thiourea	487.15	
1520-31-6	Sulfoximine, S,S-dimethyl-	329.15	
1520-44-1	1,1′-(1-Methyl-1,3-propanediyl)bis[benzene]		568.15
1520-45-2	Benzene, 1,1′-(2-ethyl-1,3-propanediyl)bis-		577.65
1520-70-3	Ethanesulfonamide	331.95	
1520-71-4	Chlorotripropylplumbane	408.15	
1520-78-1	Trimethyllead chloride	464.15	
152044-53-6	Epothilone A	368.15	
152044-54-7	Epothilone B	390.65	
15205-35-3	N-Cyclopropylbenzamide	373.95	
15205-66-0	2-(Methylsulfonyl)ethanol	300.15	418.15
1521-02-4	2,5-Bis(dimethylamino)-2,5-cyclohexadiene-1,4-dione	444.65	
1521-38-6	2,3-Dimethoxybenzoic acid	396.15	
1521-41-1	3,4-Dimethoxybenzamide	366.65	
15210-87-4	N-Hexyl-3-oxobutanamide	331.15	
15214-89-8	2-Acrylamido-2-methylpropanesulfonic acid	458.15	
15216-10-1	1-Nitrosoazetidine		329.15
15218-38-9	(3R,4S,5R,6R)-6-(Hydroxymethyl)-2,3,4,5-piperidinetetrol	388.15	
15219-34-8	Ethanedioyl dibromide	253.65	377.15
1522-00-5	4-(Diethylamino)-4-oxobutanoic acid	356.25	
1522-13-0	α-Phenyl-α-(2-phenylethynyl)benzenemethanol	355.15	
1522-22-1	Hexafluoroacetylacetone		343.15
1522-46-9	Butanoic acid, 2-acetyl-3-methyl-, ethyl ester		474.15
1522-88-9	1,3-Diiodo-2,2-bis(iodomethyl)propane	506.15	
1522-92-5	Pentaerythritol tribromide	365.65	
15220-85-6	1-Propene, 2-methyl-, tetramer	175.15	517.15
15224-25-6	3-Benzoylindole	443.15	
15225-85-1	(SP-4-1)-Bis(1-piperidinecarbodithioato-κS1,κS′1)copper	472.15	
15227-42-6	cis-Dichlorobis(pyridine)platinum	501.15	
15228-71-4	(+)-Leurosidine	482.65	
1523-11-1	2-Naphthyl acetate	342.15	
1523-19-9	Phenol, 4-methoxy-, 1-benzoate	360.15	
15231-91-1	6-Bromo-2-naphthalenol	400.65	
15232-76-5	3-Octyne	169.25	406.25
15233-41-7	3-[(4-Amino-2-methyl-5-pyrimidinyl)methyl]-4-methyl-5-thiazolidineethanol	418.15	
15233-65-5	2,6-Dimethoxyhydroquinone	435.15	
152378-30-8	(1S,2S,4R)-2-(6-Chloro-3-pyridinyl)-7-azabicyclo[2.2.1]heptane	334.65	
15238-00-3	Cobalt iodide (CoI2)	768.15	
1524-86-3	(11β,16α)-9-Fluoro-11,21-dihydroxy-16,17-[(1-methylethylidene)bis(oxy)]pregn-4-ene-3,20-dione	535.15	
1524-88-5	Flurandrenolide	524.15	
152402-98-7	2-[[(3-Methyl-4-nitro-2-pyridinyl)methyl]thio]-1H-benzimidazole	363.65	
152459-95-5	Imatinib	481.65	
152460-10-1	6-Methyl-N-[4-(pyridin-3-yl)pyrimidin-2-yl]benzene-1,3-diamine	411.15	
1525-77-5	Pregnan-20-one, 3-(acetyloxy)-6-fluoro-5,17-dihydroxy-16-methyl-, (3β,5α,6β,16α)-	523.15	
15254-64-5	2,4-Dimethylphenanthrene	384.15	
15257-25-7	Dibutylstannylene 2-methyl-2-propenoate	307.15	
15258-73-8	2,6-Dichlorobenzyl alcohol	371.15	
1526-17-6	2-Fluoro-6-nitrophenol	360.15	
1526-83-6	1-(10,11-Dihydrodibenzo[b,f]thiepin-10-yl)-4-methylpiperazine	407.65	
15260-83-0	5,5-Dimethyl-4-thiazolidinecarboxylic acid	473.65	
15262-86-9	Testosterone isocaproate	352.65	
152628-03-0	7-Methyl-2-propyl-1H-benzimidazole-5-carboxylic acid	569.15	
15263-20-4	1,3-Dihydro-1,3-dioxo-2H-isoindol-2-yl 1,1-dimethylethyl carbonate	391.15	
15263-53-3	Cartap	404.15	
152658-17-8	2-Propenamide, N-[(5α,6β)-17-(cyclopropylmethyl)-4,5-epoxy-3,14-dihydroxymorphinan-6-yl]-3-(3-furanyl)-N-methyl-, hydrochloride (1:1), (2E)-	485.15	
15268-07-2	3,3′-Diaminodiphenyl ether	310.15	
1527-12-4	2-(Phenylthio)benzoic acid	440.15	
1527-17-9	2-(Phenylthio)benzeneacetic acid	396.15	
15271-41-7	(1S,2R,4R,5R,6E)-5-Chloro-6-[[[(methylamino)carbonyl]oxy]imino]bicyclo[2.2.1]heptane-2-carbonitrile	416.65	
1528-30-9	Methylenecyclopentane		348.65
1528-42-3	Benzeneacetic acid, 4-acetyl-, ethyl ester	335.65	
1528-74-1	4,4′-Dinitro-1,1′-biphenyl	514.65	
15284-15-8	d-Methadone hydrochloride	516.65	
15284-31-8	1-(2-Chloroethyl)-1H-tetrazol-5-amine	424.9	
15284-51-2	Calcium myristate	443.15	
15284-70-5	2-(2-Azidophenyl)-2H-benzotriazole	350.65	
15286-98-3	N-Acryloyl-p-aminobenzoic acid	493.15	
1529-17-5	Trimethylphenoxysilane	218.15	392.15
1529-40-4	9H-Fluorene-9-carbonitrile	424.65	
1529-41-5	3-Chlorobenzeneacetonitrile	284.65	534.15
1529-47-1	Germane, chlorotrimethyl-	259.15	375.15
1529-48-2	Germane, dichlorodimethyl-	251.15	397.15
1529-65-3	1,3,5-Triethenyl-1,1,3,5,5-pentamethyltrisiloxane		472.15
1529-68-6	1,2,3,4-Tetrabromobutane	391.15	
15299-99-7	Napropamide	348.15	
153-00-4	Methenolone	423.9	
153-18-4	Rutin	398.15	
153-61-7	Cephalothin	433.4	
153-78-6	2-Aminofluorene	404.65	
153-87-7	Oxypertine	413.15	
153-94-6	D-Tryptophan	547.15	333.15
153-98-0	Serotonin hydrochloride	440.65	
1530-03-6	1,1-Diphenylpropane	286.45	554.75
1530-04-7	1,1′-Hexylidenebis[benzene]	261.39	594.18
1530-05-8	1,1′-Heptylidenebis[benzene]	287.15	606.65
1530-06-9	1,1-Diphenyloctane	268.65	
1530-17-2	3-Pentanone, 2-(1-ethylpropylidene)hydrazone		434.65
1530-32-1	Ethyltriphenylphosphonium bromide	472.65	
1530-34-3	Phosphonium, (3-methyl-2-buten-1-yl)triphenyl-, bromide (1:1)	515.15	
1530-35-4	Phosphonium, triphenyl(3-phenyl-2-propen-1-yl)-, chloride (1:1)	498.15	
1530-36-5	Phosphonium, [(2-methylphenyl)methyl]triphenyl-, bromide (1:1)	527.15	
1530-37-6	Phosphonium, [(4-methylphenyl)methyl]triphenyl-, chloride (1:1)	513.65	
1530-39-8	Phosphonium, [(4-chlorophenyl)methyl]triphenyl-, chloride (1:1)	553.15	
1530-43-4	Phosphonium, (diphenylmethyl)triphenyl-, chloride (1:1)	514.15	
1530-45-6	Phosphonium, (2-ethoxy-2-oxoethyl)triphenyl-, bromide (1:1)	430.15	
1530-73-0	4-Methylbenzoic acid 2-(4-methylbenzoyl)hydrazide	526.65	
15301-40-3	Actinoquinol	559.15	
15301-48-1	Bezitramide	420.15	
15301-69-6	Flavoxate	360.65	
15301-93-6	Tofenacin		414.15
15302-16-6	Ordinator	421.15	
15307-78-5	Diclofenac methyl ester	374.65	
15307-79-6	Diclofenac sodium	557.15	
15307-81-0	Diclofenac potassium	588.15	
15307-86-5	Diclofenac	430.15	
15307-93-4	2,6-Dichloro-N-phenylbenzenamine	322.15	
15308-01-7	2-Chloro-N-(2,6-dichlorophenyl)-N-phenylacetamide	416.65	
1531-12-0	(-)-3-Hydroxymorphinan	544.15	
1531-20-0	3,4-Dimethyl-8-nitroquinoline	426.65	
1531-77-7	Dibenzo[b,e]thiepin-11(6H)-one	356.65	
15310-01-7	Benodanil	410.15	
15310-87-9	2-[(2,5-Dimethylphenyl)thio]acetic acid	344.65	
15311-09-8	4,4′-(1,3,4-Thiadiazole-2,5-diyl)bis[pyridine]	515.15	
15317-58-5	1H-Indole-3-carboxylic acid hydrazide	498.15	
15318-45-3	Thiamphenicol	438.45	
1532-72-5	Isoquinoline N-oxide	377.15	
1532-84-9	1-Isoquinolinamine	396.15	
1532-97-4	4-Bromoisoquinoline	314.65	555.65
15323-35-0	Phantolide	334.65	609.75
153233-91-1	Etoxazole	374.65	
153259-65-5	Cilomilast	430.15	
15329-69-8	(2Z)-4-Oxo-4-[(phenylmethyl)amino]-2-butenoic acid	411.15	
1533-45-5	4,4′-Bis(2-benzoxazolyl)stilbene	639.65	
1533-65-9	1-[2-(3-Pyridinyl)diazenyl]-2-naphthalenol	425.15	
1533-74-0	N-[5-[Bis[2-(acetyloxy)ethyl]amino]-2-[2-(4-nitrophenyl)diazenyl]phenyl]acetamide	393.15	
1533-76-2	N-[5-[Bis[2-(acetyloxy)ethyl]amino]-2-[2-(4-nitrophenyl)diazenyl]phenyl]propanamide	399.15	
1533-77-3	N-[5-[Bis[2-(acetyloxy)ethyl]amino]-2-[2-(2-methoxy-4-nitrophenyl)diazenyl]phenyl]acetamide	446.15	
1533-78-4	N-[5-[Bis[2-(acetyloxy)ethyl]amino]-2-[2-(2-chloro-4-nitrophenyl)diazenyl]phenyl]acetamide	400.15	
15337-64-1	4-Hydroxybutyl octadecanoate	313.9	
1534-08-3	S-Methyl thioacetate		371.15
1534-26-5	3-Tridecanone	304.15	
1534-27-6	3-Dodecanone	291.65	
15341-08-9	6-Nitro-1,3-benzodioxole-5-methanol	395.65	
153436-54-5	4-(3-Bromophenylamino)-6,7-dimethoxyquinazoline	462.65	
15345-89-8	Desmethoxyyangonin	406.65	
1535-45-1	3-(Aminosulfonyl)-4-fluorobenzoic acid	513.15	
1535-92-8	2,3,4,5,6-Pentafluoro-N-(2,3,4,5,6-pentafluorophenyl)benzenamine	354.65	
15351-05-0	Buzepide methiodide	485.65	
15351-09-4	Metamfepramone		399.15
15351-13-0	Nicofuranose	414.15	
153559-49-0	Bexarotene	498.15	
15356-60-2	(+)-Menthol	316.15	
15356-74-8	5,6,7,7a-Tetrahydro-4,4,7a-trimethyl-2(4H)-benzofuranone	313.65	
15358-06-2	Morphinan, 6,7,8,14-tetradehydro-4,5-epoxy-3,6-dimethoxy-17-methyl-, (5α)-, (2R,3R)-2,3-dihydroxybutanedioate	493.15	
15358-48-2	Hydroxylupanine	396.15	
15358-88-0	(±)-Isopinocamphone	284.15	486.15
1536-23-8	2,3,4,5,6-Pentafluorobenzophenone	310.15	366.15
15361-99-6	1-Allyl-2,3,4,5-tetramethoxybenzene	298.15	
15362-40-0	1-(2,6-Dichlorophenyl)indolin-2-one	401.15	
15364-25-7	[[2,2′,2′′-(Nitrilo-κN)tris[ethanolato-κO]](3-)]oxovanadium	530.65	
15364-56-4	(Dimethylamino)acetone		304.75
15371-06-9	3-(Acetylamino)-1,2-benzenedicarboxylic acid	533.15	
153719-23-4	Thiamethoxam	414.15	
153719-38-1	3,6-Dihydro-3-methyl-N-nitro-2H-1,3,5-oxadiazin-4-amine	415.15	
1538-09-6	Benzathine penicillin	396.65	
1538-62-1	Bis(acetato-κO)triphenylantimony	487.65	
1538-75-6	Pivalic anhydride		466.15
15385-57-6	Mercury iodide (Hg2I2)	563.15	
15386-80-8	2-Cyano-N-(3,4-dichlorophenyl)acetamide	439.15	
15386-94-4	1-[3-(Trifluoromethyl)phenyl]-2,5-pyrrolidinedione	373.15	
1539-04-4	1,4-Diphenyl 1,4-benzenedicarboxylate	472.65	
1539-06-6	4-(Acetylamino)-3-nitrobenzoic acid	492.15	
1539-57-7	3,5-Diethyl 1,4-dihydro-2,6-dimethyl-4-(phenylmethyl)-3,5-pyridinedicarboxylate	390.65	
15390-25-7	(T-4)-Difluoro(2,4-pentanedionato-κO2,κO4)boron	316.15	
15391-40-9	[[2,2′-[(Imino-κN)bis[3,1-propanediyl(nitrilo-κN)methylidyne]]bis[phenolato-κO]](2-)]nickel	545.15	
15396-36-8	2-Chloro-3,5-diiodobenzoic acid	480.65	
154-02-9	5-Hydroxytryptophol	385.15	
154-06-3	L-5-Methyltryptophan	545.65	
154-08-5	5-Fluoro-DL-tryptophan	537.65	
154-17-6	2-Deoxyglucose	419.65	
154-23-4	Catechin	487.15	902.35
154-41-6	Phenylpropanolamine hydrochloride	467.15	
154-58-5	1,5-Anhydroglucitol	415.65	
154-68-7	Antazoline phosphate	469.15	
154-69-8	Tripelennamine hydrochloride	465.65	
154-82-5	Simetride	402.15	
154-86-9	Benzenemethanol, 3-hydroxy-α-[(methylamino)methyl]-, hydrochloride (1:1)	415.65	
154-87-0	Thiamine pyrophosphate	512.15	
154-93-8	Carmustine	304.15	
154-97-2	Pralidoxime mesylate	509.65	
1540-28-9	Pentanoic acid, 2-acetyl-, ethyl ester		497.15
1540-29-0	Hexanoic acid, 2-acetyl-, ethyl ester		494.65
1540-34-7	3-Ethyl-2,4-pentanedione	405.65	451.65
1540-35-8	3-Propyl-2,4-pentanedione	352.65	
1540-36-9	3-Butyl-2,4-pentanedione	316.15	