CAS	name	Tm	Tb
16298-03-6	2-Pyrazinecarboxylic acid, 3-amino-, methyl ester	445.15	
16298-90-1	Jesaconitine	374.65	
1630-08-6	1,3-Diamino-2,4,6-trinitrobenzene	553.15	
1630-62-2	3-Methyl-2-phenyl-1,3-oxazolidine		515.15
16302-35-5	3,6-Dihydro-4-methyl-2H-pyran		390.65
16303-23-4	2,4,6-Tri(morpholino)-1,3,5-triazine	559.65	
16305-75-2	L-Alanyl-L-tryptophan	533.15	
16308-92-2	2,4-Dimethylbenzyl alcohol	295.15	505.15
1631-25-0	N-Cyclohexylmaleimide	357.15	
1631-26-1	Benzylmaleimide	341.65	
1631-28-3	N-(4-Methylphenyl)maleimide	422.65	
1631-29-4	N-(4-Chlorophenyl)maleimide	382.65	
1631-73-8	Trimethylstannane	226.15	333.15
1631-78-3	Methylstannane		274.55
1631-82-9	(Chloromethylsilyl)benzene		449.65
1631-84-1	(Dichlorosilyl)benzene		454.15
16311-69-6	3,4-Dimethyl-5-(2-hydroxyethyl)thiazolium iodide	356.15	
16313-65-8	2-Amino-5-nitrobenzamide	509.85	
163165-91-1	2-(4′,4′-Dimethyl-3′,4′-dihydrooxazol-2′-yl)phenol	332.15	
16318-87-9	4-[(4-Amino-3-methylphenyl)butylamino]-1-butanesulfonic acid	417.15	
16319-93-0	17-(Acetyloxy)-3-ethoxypregna-3,5-dien-20-one	434.15	
1632-16-2	2-Ethyl-1-hexene		393.15
1632-68-4	Norborneol	396.65	449.65
1632-73-1	Fenchol	318.15	475.65
1632-76-4	3-Methylpyridazine	457.15	487.15
1632-83-3	1-Methylbenzimidazole	339.15	
1632-89-9	Acetaldehyde-1,2,2,2-d4	151.45	
16320-04-0	Gestrinone	427.15	
16320-20-0	3-Phenyl-1,3,5-pentanetricarbonitrile	343.15	
16322-19-3	4-Nitrobenzo-2-oxa-1,3-diazole	366.15	
163222-33-1	Ezetimibe	438.15	
16325-43-2	4,5,6-Trimethyl-1-phenyl-3,4-dihydropyrimidine-2(1H)-thione	459.65	
1633-05-2	Strontium carbonate	1767.15	
1633-09-6	1,1,1,2,2,2-Hexaethyldisilane		523.15
1633-22-3	[2.2]Paracyclophane	558.15	
1633-44-9	3,4-Pyridinedicarbonitrile	353.15	
1633-83-6	Butane sultone	287.65	
1633-90-5	(±)-3-Hexanethiol		330.15
16331-21-8	1-Bromooctacosane	330.65	
16332-22-2	Ethyl 4-hydroxy-4-phenyl-1-piperidinecarboxylate	430.15	
16332-51-7	Ethanaminium, 2-ethoxy-N,N,N-trimethyl-, iodide (1:1)	430.15	
16339-18-7	2,2′-(Nitrosoimino)bis[acetonitrile]	311.4	
16339-28-9	Dichloroethoxyborane		351.05
1634-02-2	Tetrabutylthiuram disulfide	368.15	
1634-04-4	tert-Butyl methyl ether	164.55	328.35
1634-78-2	Malaoxon		387.15
1634-82-8	2-(4′-Hydroxyphenylazo)benzoic acid	479.65	
16345-80-5	Benzenemethanaminium, N-methyl-N,N-dioctyl-, chloride (1:1)	341.15	
16347-95-8	4-Methoxyquinazoline	308.55	
1635-02-5	3,4-Dimethyl-3-hexen-2-one		431.15
1635-09-2	N-Dodecyl-4-methylbenzenesulfonamide	346.15	
1635-20-7	Pregnan-20-one, 3,11,17-trihydroxy-16-methyl-, (3β,5α,11α,16α)-	519.15	
1635-31-0	3-Aminocoumarin	403.15	
1635-61-6	5-Chloro-2-nitroaniline	400.95	
1635-84-3	2,4-Dimethyl-6-nitroaniline	341.15	
163520-33-0	3-Isoxazolecarboxylic acid, 4,5-dihydro-5,5-diphenyl-, ethyl ester	360.65	
163521-08-2	2-Benzofurancarboxamide, 5-[4-[4-(5-cyano-1H-indol-3-yl)butyl]-1-piperazinyl]-, hydrochloride (1:1)	551.15	
16353-15-4	2-Methyl-4-oxo-3(4H)-quinazolineacetic acid hydrazide	533.15	
16354-58-8	Acetylserine	480.75	
16355-92-3	1,10-Diiododecane	302.15	
16357-59-8	2-Ethoxy-1-(ethoxycarbonyl)-1,2-dihydroquinoline	329.65	
16357-69-0	4-Amino-5-cyanopyrimidine	523.15	
16359-54-9	Fenproporex hydrochloride	419.15	
1636-25-5	2-Ethyl-2-phenylpropanedioic acid	455.65	
1636-27-7	Dipropylmalonic acid	432.15	
1636-34-6	2,3-Diphenyl-2,3-butanediol	340.15	
1636-39-1	Dicyclopentyl	237.8085	340.15
1636-41-5	4,5-Diethyloctane		466.15
16365-27-8	2-(4-Nitrophenoxy)ethanol	363.65	
163680-77-1	7H-Pyrido[1,2,3-de]-1,4-benzoxazine-6-carboxylic acid, 10-(1-aminocyclopropyl)-9-fluoro-2,3-dihydro-3-methyl-7-oxo-, (3S)-, methanesulfonate (1:1)	531.65	
16369-05-4	(±)-Valinol	304.65	
16369-14-5	2-Amino-1-pentanol	305.15	
16369-21-4	N-Propylethanolamine		456.15
1637-31-6	1,2,3,4-Tetrachloro-1,3-butadiene	269.15	461.15
1637-39-4	Zeatin	480.65	
163702-05-4	Ethyl perfluorobutyl ether		349.15
163702-07-6	Methyl nonafluorobutyl ether		337.65
16371-55-4	Benzoic acid, 2-(2-thienylmethylene)hydrazide	478.15	
16372-96-6	3,5-Dibromobiphenyl	288.15	
163733-96-8	3,4,5-Trifluorobenzenamine	335.55	
16375-90-9	4-Acetamido-2-methylphenol	455.15	
16378-22-6	Pyrrolidine, 3-(10,11-dihydro-5H-dibenzo[a,d]cyclohepten-5-ylidene)-1-ethyl-2-methyl-, hydrochloride (1:1)	524.65	
1638-12-6	1,3-Bis(4-phenoxyphenoxy)benzene	361.65	
1638-22-8	4-Butylphenol	295.15	521.15
1638-26-2	1,1-Dimethylcyclopentane	203.35	360.65
1638-53-5	Morpholinium, 4-methyl-4-[2-[(4-nitrobenzoyl)(phenylmethyl)amino]ethyl]-, bromide (1:1)	470.15	
1638-63-7	O-Acetylmandeloyl chloride	309.15	
1638-75-1	(Chloromethyl)dimethylphosphine oxide	343.9	
16382-07-3	1H-Indole-3-ethanamine, N,N-dibutyl-, hydrochloride (1:1)	455.65	
16382-18-6	Ethyl 5,6-dimethoxy-1H-indole-2-carboxylate	445.15	
16383-89-4	2-Ethoxy-4-nitrobenzenamine	363.15	
16386-65-5	2-Chloro-6-(4-chloro-1H-pyrrol-3-yl)benzenamine	364.15	
16386-99-5	2,2,7,7-Tetramethyloctanedioic acid	453.15	
1639-09-4	1-Heptanethiol	230.15	450.15
1639-31-2	3,4,5-Trimethylbenzenamine	349.65	
1639-32-3	N-(2,3,4-Trimethylphenyl)acetamide	413.15	
1639-35-6	1-Propanone, 3-(dimethylamino)-1-(2-hydroxyphenyl)-, hydrochloride (1:1)	449.15	
1639-37-8	Ethyl α-oxo-2-furanacetate	301.15	
1639-43-6	3β-Acetoxyandrost-5-en-17β-ol	420.65	
1639-60-7	Dextropropoxyphene hydrochloride	437.15	
16390-61-7	1-Phenyl-o-carborane	340.15	
16398-39-3	Nitroxazepine	501.15	
1640-39-7	2,3,3-Trimethylindolenine	429.15	
1640-89-7	Ethylcyclopentane	134.75	376.65
16400-13-8	2,3-Dihydro-7-methyl-1H-inden-4-ol	359.4	
16400-51-4	3,3′-Dibromobiphenyl	444.15	
16401-99-3	Ethyl 1-(4-chlorobenzoyl)-5-methoxy-2-methyl-1H-indole-3-acetate	368.65	
16406-48-7	Ruthenium carbonyl (Ru(CO)5)	251.15	
16409-34-0	Sodium glycodeoxycholate	520.65	
16409-44-2	2,6-Octadien-1-ol, 3,7-dimethyl-, acetate		513.15
16409-45-3	Menthyl acetate		500.15
1641-17-4	2-Hydroxy-4-methoxy-4′-methylbenzophenone	368.15	
1641-36-7	1-Butanamine, acetate (1:1)	319.15	344.15
1641-40-3	2-Chloro-1,3,2-benzodioxaphosphole	303.15	
1641-41-4	4-Indanol	322.15	518.15
1641-72-1	3-Pyridinecarboxylic acid, 2-(dimethylamino)ethyl ester, 2-hydroxy-1,2,3-propanetricarboxylate (1:1)	398.15	
1641-74-3	3-Pyridinecarboxylic acid, 2-(diethylamino)ethyl ester, 2-hydroxy-1,2,3-propanetricarboxylate (1:1)	396.15	
16413-75-5	N-(2-Hydroxy-1-methyl-2-phenylethyl)-N-methylacetamide	351.15	
16414-34-9	5-Bromo-3,4-dihydroxybenzaldehyde	503.15	
16415-12-6	Hexadecyltrimethoxysilane	272.15	
16415-13-7	Hexadecyltriethoxysilane	264.15	
16417-02-0	3-Butyl-4(3H)-quinazolinone	346.15	
16417-38-2	N-Palmitoyl-L-serine	370.65	
16419-60-6	2-Methylphenylboronic acid	439.65	
1642-54-2	Diethylcarbamazine citrate	415.15	
1642-81-5	4-(Chloromethyl)benzoic acid	469.15	475.15
16420-13-6	Dimethylthiocarbamoyl chloride	315.65	
16423-52-2	N-Decylacetamide	323.65	
16426-83-8	5-Methoxy-2-methyl-1-(3-pyridinylcarbonyl)-1H-indole-3-acetic acid	461.65	
1643-15-8	2-(3-Methylphenoxy)acetic acid	439.4	
1643-19-2	Tetrabutylammonium bromide	390.65	
1643-20-5	Dodecyldimethylamine oxide	405.65	
1643-30-7	3-(4-Bromophenyl)propionic acid	408.15	
1643-97-6	1-Fluoro-4-[(4-methylphenyl)sulfonyl]benzene	367.65	
16430-09-4	3-Methyl-4-(phenylmethylene)-5(4H)-isoxazolone	419.65	
16430-32-3	9-Anthracenemethyl acetate	382.15	
16433-43-5	γ-Methylbenzenebutanoic acid	286.15	
16433-96-8	1-Ethynyl-2-nitrobenzene	353.4	
16434-97-2	5-Bromo-2-biphenylol	326.65	454.15
164391-52-0	5,7-Di-tert-butyl-3-(3,4-dimethylphenyl)-3H-benzofuran-2-one	410.15	
1644-11-7	1-[1-[Difluoro[(1,2,2-trifluoroethenyl)oxy]methyl]-1,2,2,2-tetrafluoroethoxy]-1,1,2,2,3,3,3-heptafluoropropane		376.15
16442-10-7	Benzoic acid, 2,6-dichloro-, 1,1′-anhydride	428.9	
16442-79-8	Ethanone, 2-amino-1-(2-chlorophenyl)-, hydrochloride (1:1)	446.65	
1645-75-6	1,1,1,3,3,3-Hexafluoro-2-propanimine		290.65
1645-83-6	1,3,3,3-Tetrafluoropropene		257.15
16452-01-0	3-Methoxy-4-methylaniline	329.65	524.15
1646-26-0	2-Acetylbenzofuran	349.15	
1646-53-3	3-Bromo-1,2,4,5-tetramethylbenzene	333.65	
1646-54-4	1,4-Dibromo-2,3,5,6-tetramethylbenzene	472.65	
1646-77-1	Propionaldehyde, 2-methoxy-2-methyl-, O-(methylcarbamoyl)oxime	344.65	
1646-87-3	Aldicarb sulfoxide	382.15	
1646-88-4	Aldicarb sulfone	414.15	
16463-74-4	Hydrocortisone 17-acetate	508.65	
164656-23-9	Dutasteride	529.15	
16466-44-7	N-Ethyl-N-phenylbenzamide	330.15	
16466-61-8	1,2-Bis(1,1-dimethylethyl) 1,2-hydrazinedicarboxylate	394.15	
1647-16-1	1,9-Decadiene		440.15
1647-26-3	2-Cyclohexylethyl bromide	216.15	485.15
16473-66-8	1,1′-Methylenebis[5-oxo-L-proline]	585.15	
16473-76-0	N2-Acetylasparagine	439.65	
16475-50-6	N1,N2-Diethylethanedithioamide	328.15	
16475-90-4	Benzoic acid, 5-acetyl-2-hydroxy-, methyl ester	328.15	
16479-50-8	Digitoxigenin bisdigitoxoside	503.65	
16484-77-8	(+)-Mecoprop	368.15	
16485-10-2	DL-Panthenol	333.65	
16486-94-5	2,2,3,3,4,4,5,5,6,6,7,7,8,8,9,10,10,10-Octadecafluoro-9-(trifluoromethyl)decanoic acid	335.65	
16486-96-7	2,2,3,3,4,4,5,5,6,6,7,7,8,8,9,9,10,10,11,12,12,12-Docosafluoro-11-(trifluoromethyl)dodecanoic acid	361.65	
16487-10-8	(±)-1,3-Dithiane 1-oxide	361.95	
16489-90-0	Dihydroethoxyquin	311.65	
1649-08-7	1,2-Dichloro-1,1-difluoroethane	171.95	319.95
1649-18-9	Azaperone	347.15	
16490-68-9	2-Chloro-2-propenamide	365.15	
16490-80-5	3-[(Phenylmethyl)amino]propanamide	356.65	
16491-15-9	1,5-Dimethylcyclopentene	155.15	372.15
16496-38-1	Pentaric acid, 2,3-dideoxy-3-(methoxycarbonyl)-, 1,4-lactone, 5-methyl ester	379.65	
16497-41-9	N1,N2-Diphenyl-1,2-benzenedicarboxamide	527.15	
16498-20-7	2,3-Dihydro-6-nitro-1,4-benzodioxin	394.65	
16498-81-0	2-Methoxynicotinic acid	418.15	
16509-02-7	Sulfuric acid, monododecyl ester, aluminum salt (3:1)	489.15	
16509-46-9	(-)-Linalyl acetate		493.15
16510-49-9	(2,3-Diphenyl-1-cyclopropen-1-yl)benzene	385.15	
16517-53-6	N-(3-Hydroxypropyl)urea	391.15	
16518-62-0	3-Bromo-N,N-dimethylaniline	284.15	
1652-80-8	2,2-Dichloro-1,1,1,3,3,3-hexafluoropropane	261.65	308.65
1652-81-9	1,1,3-Trichloro-1,2,2,3,3-pentafluoropropane		345.65
1652-89-7	1,1,1,2,2-Pentachloro-3,3,3-trifluoropropane	258.15	426.25
16523-54-9	Chlorodicyclohexylphosphine	400.15	
16524-22-4	N-(3-Methylphenyl)anthranilic acid	416.15	
16524-23-5	N-(4-Methylphenyl)anthranilic acid	466.65	
165252-70-0	Dinotefuran	371.15	
16527-88-1	Pyridine, 1-oxide, hydrochloride (1:1)	452.15	
16528-77-1	4-Octadecylmorpholine	298.15	
16528-78-2	Carbamodithioic acid, N,N-dicyclohexyl-, sodium salt (1:1)	385.65	
16529-56-9	2-Methyl-3-butenenitrile		399.15
1653-19-6	2,3-Dichloro-1,3-butadiene		371.15
1653-30-1	(±)-2-Undecanol	321.15	503.65
1653-31-2	2-Tridecanol	296.15	
1653-33-4	4-Tetradecanol	297.15	
1653-34-5	(±)-2-Pentadecanol	308.15	572.15
1653-35-6	8-Pentadecanol	327.05	
1653-64-1	1,3-Benzodioxole-5-ethanamine, hydrochloride (1:1)	481.65	
1653-75-4	1H-Benzimidazole, 2-methyl-, hydrochloride (1:1)	566.15	
16530-71-5	Ammonium myristate	355.65	
16532-02-8	(Bromomethyl)chlorodimethylsilane		404.15
16532-79-9	(4-Bromophenyl)acetonitrile	323.15	
16533-71-4	4-Methyl-3,5-dinitrobenzoic acid	427.65	
16533-72-5	cis-Epoxysuccinate	422.15	
16536-95-1	3-Methylbutanethioamide	333.65	
1654-55-3	5-Methylazulene	300.15	
1654-86-0	Decyl decanoate	282.85	
16543-10-5	2-(Diphenylphosphinyl)acetic acid hydrazide	432.65	
16543-55-8	N-Nitrosonornicotine	320.15	
16545-00-9	1,6-Bis[2-(diethylamino)ethyl] hexanedioate	313.15	
16545-23-6	Xanthomicrol	498.15	
16545-54-3	Dimyristyl thiodipropionate	322.15	
16545-68-9	Cyclopropanol	453.15	374.65
16546-01-3	Ethyl 3-(4-methoxyphenyl)-2-oxiranecarboxylate	318.15	
16546-47-7	Ethenylmethoxydimethylsilane		355.65
1655-07-8	Ethyl 2-oxocyclohexanecarboxylate	374.15	379.65
1655-49-8	N2,N6-Bis(2,4-dinitrophenyl)-L-lysine	447.15	
1655-52-3	2,4-Dinitrophenyl-L-alanine	449.65	
1655-53-4	2,4-Dinitrophenyl-DL-methionine	395.9	
1655-54-5	N-(2,4-Dinitrophenyl)-L-phenylalanine	459.15	
1655-64-7	N-(2,4-Dinitrophenyl)-L-serine	469.65	
1655-65-8	N-(2,4-Dinitrophenyl)-L-threonine	418.4	
1655-66-9	N,N-Bis(2,4-dinitrophenyl)-L-histidine	500.15	
1655-69-2	1-Methoxy-4-phenoxybenzene	263.15	
1655-70-5	1,1′-Oxybis[2-methoxybenzene]	352.65	603.65
1655-74-9	1,1′-Oxybis[4-methoxybenzene]	375.15	
16554-45-3	2-Methoxy-6-nitrobenzenamine	340.15	
16555-77-4	2-Hydroxyhippuric acid	483.65	
1656-44-6	2,4-Dinitrobenzenesulfonyl chloride	374.65	343.15
1656-48-0	Bis(2-cyanoethyl) ether	323.15	434.65
1656-63-9	Trilauryl trithiophosphite	302.9	
16562-13-3	Stepholidine	434.65	
16562-77-9	1-Propanesulfonic acid, 2-oxo-, sodium salt (1:1)	449.65	
16566-20-4	5-Quinoxalinamine	365.15	
165668-41-7	Indisulam	515.65	
16567-18-3	8-Bromoquinoline	353.15	575.15
165670-57-5	2-(1-Methyl-1-phenylethyl)-5-phenyl-2H-tetrazole	324.15	
16568-02-8	2-Ethylidene-1-methylhydrazinecarboxaldehyde		416.15
1657-16-5	Pigment Yellow 4	487.65	
1657-18-7	2-[2-(4-Methoxyphenyl)diazenyl]-3-oxo-N-phenylbutanamide	391.15	
1657-28-9	N-(2-Pyridinyl)ketoacetamide	386.15	
1657-71-2	trans-4,4′-Diphenylstilbene	574.15	
16571-53-2	1-Methyl-3-[2-(4-pyridinyl)ethyl]-1H-indole	359.15	
16574-52-0	(4-Fluorophenyl)[4-(trifluoromethyl)phenyl]methanone	373.65	
16577-52-9	Lithium octanoate	528.15	
1658-08-8	1,2,3,4,5,6,7,8-Octahydroacridine	342.15	
165800-03-3	Linezolid	347.65	
165800-04-4	Eperezolid	448.15	
16582-03-9	1,6-Diaminophenazine	518.15	
16582-59-5	4,6-Dichloro-2-benzothiazolamine	527.15	
16583-08-7	2,3,4,5-Tetrafluoro-6-nitrobenzoic acid	408.65	
16584-03-5	2-Propylbenzotriazole		398.15
16587-41-0	3,7-Dimethylbenzo[b]thiophene	303.65	
16587-71-6	4-tert-Amylcyclohexanone	369.15	
16588-02-6	2-Chloro-5-nitrobenzonitrile	381.65	
16588-06-0	4-Chloro-3-nitrobenzamide	429.15	
16588-16-2	Benzoic acid, 4-chloro-3-nitro-, ethyl ester	333.65	
16588-34-4	4-Chloro-3-nitrobenzaldehyde	338.15	
16589-24-5	Synephrine tartrate	462.15	
16590-41-3	Naltrexone	442.15	
16595-80-5	Levamisole hydrochloride	501.15	
16597-35-6	Tetrahydro-1,3-dimethyl-2(1H)-pyrimidinethione	351.15	
16597-65-2	2-(Dimethylamino)ethyl butanoate		458.65
1660-04-4	1-Acetyladamantane	458.15	
1660-93-1	3,4,7,8-Tetramethyl-1,10-phenanthroline	551.65	
16600-92-3	Nitrophloroglucinol	464.65	
16604-45-8	Medifoxamine fumarate	401.65	
16606-02-3	PCB 31	340.15	
16606-46-5	1,2-Dihydro-1-phenylnaphthalene	312.15	
16607-80-0	N,N-Dimethylcyclohexanemethanamine	409.65	
16610-44-9	N-(2-Methylphenyl)anthranilic acid	464.65	
16611-15-7	4-Chloro-2-nitro-N-phenylbenzenamine	333.15	
16611-68-0	6-Chlorodibenzo[d,f][1,3,2]dioxaphosphepin	336.15	
16613-87-9	Dodecylethanolamine	317.35	
16616-82-3	1-Methoxy-2-phenyl-1H-indole	319.65	
16617-46-2	3-Amino-4-cyanopyrazole	447.65	
166170-15-6	(R)-Boc-2-methylproline	401.15	
16618-72-7	(±)-3-Phenyl-1-indanone	350.65	
16619-19-5	1-(4-Morpholinyl)-3-phenyl-2-propen-1-one	366.65	
1662-01-7	4,7-Diphenyl-1,10-phenanthroline	488.65	
16620-52-3	5-Methoxy-N,N-dimethyl-1H-indole-3-methanamine	400.9	
16620-96-5	1,2,3,4-Tetrahydro-6,7-dimethoxy-2-methylisoquinoline	356.65	
16623-25-9	3-Amino-α-ethylbenzenepropanoic acid	352.15	
16623-56-6	Thalidasine	379.15	
16624-64-9	N-[(Phenylmethoxy)carbonyl]-L-tryptophan 4-nitrophenyl ester	378.15	
16625-72-2	4H-Dibenzo[de,g]quinoline-1,2,9,10-tetrol, 5,6,6a,7-tetrahydro-6-methyl-, hydrochloride (1:1)	516.15	
16629-19-9	2-Thiophenesulfonyl chloride	301.15	397.15
1663-35-0	(2-Methoxyethoxy)ethene	190.15	381.95
1663-39-4	tert-Butyl acrylate		393.15
1663-45-2	1,2-Bis(diphenylphosphino)ethane	415.65	
1663-47-4	Methyl (4S)-2,5-dioxo-4-oxazolidinepropanoate	371.65	
1663-61-2	Triethyl orthobenzoate		513.15
16630-91-4	2-Methylheptanal		434.65
16632-21-6	6-Methyl-5-nitro-2,4(1H,3H)-pyrimidinedione	563.15	
16634-82-5	2-Chloro-N-(4-methylphenyl)acetamide	356.15	
1664-40-0	N-Phenylethylenediamine	457.65	
1664-54-6	3-(3-Aminophenyl)propionic acid	356.15	
16640-68-9	2-(Triphenylphosphoranylidene)acetonitrile	465.15	
16641-82-0	Methyl 1-methyl-9H-pyrido[3,4-b]indole-3-carboxylate	518.15	
16642-79-8	3-(4-Nitrophenyl)propionic acid	404.15	
16642-92-5	(2E)-3-[4-(Trifluoromethyl)phenyl]-2-propenoic acid	476.65	
16644-15-8	Benz[a]anthracene-5,6-diol, 5,6-dihydro-7,12-dimethyl-, trans-	433.15	
16644-30-7	3-(Chloromethyl)-2-hydroxy-5-nitrobenzaldehyde	364.15	
16645-06-0	Methanamine, N-hydroxy-N-methyl-, hydrochloride	381.15	
16646-42-7	1-Methyl-3-cyclohexene-1-carboxylic acid	351.65	
16648-50-3	Phenylmethyl α-hydroxy-α-phenylbenzeneacetate	396.15	
16648-69-4	1-Propanone, 3-[(2-hydroxy-1-methyl-2-phenylethyl)amino]-1-(3-methoxyphenyl)-, hydrochloride (1:1)	447.15	
16649-49-3	Acetic-2,2,2-d3 acid, 1,1′-anhydride		412.15
1665-00-5	Dichloromethane-d2		355.15
1665-48-1	Metaxalone	395.4	
1665-56-1	Anhydrotetracycline	494.65	
16650-52-5	5-Chloro-1-naphthalenecarboxylic acid	518.15	
16652-64-5	O-Benzyl-L-tyrosine	496.15	
16652-71-4	L-Proline, phenylmethyl ester, hydrochloride (1:1)	416.65	
16652-75-8	L-Isoleucine, phenylmethyl ester, 4-methylbenzenesulfonate (1:1)	427.15	
16652-76-9	L-Valine, phenylmethyl ester, 4-methylbenzenesulfonate (1:1)	432.15	
16654-64-1	Dimethyl[2-(trimethylsiloxy)ethyl]amine		413.65
1666-10-0	Bis(1-methylethyl) N-phenylphosphoramidate	394.4	
1666-13-3	Diphenyl diselenide	336.65	
16662-46-7	Gallopamil hydrochloride	419.65	
16664-33-8	Dodecahydro-9b-boraphenalene	304.15	
16664-45-2	1,3-Dimethylphenanthrene	349.65	
16665-18-2	1-(2-Hydroxyethyl)-4-piperidinecarboxylic acid	458.15	
16665-89-7	2,6-Diethylacetanilide	414.65	
16667-03-1	L-Glutamic acid, compd. with erythromycin (1:1)	422.15	
16668-48-7	1,3-Dimethyl α1,α3-dichlorotricyclo[3.3.1.13,7]decane-1,3-diacetate		448.15
1667-00-1	(Cyclopropylmethyl)benzene		461.15
1667-01-2	2′,4′,6′-Trimethylacetophenone		514.15
1667-10-3	4,4′-Bis(chloromethyl)biphenyl	409.15	508.15
1667-11-4	4-Phenylbenzyl chloride	341.15	
1667-16-9	N-Octylbenzenemethanamine	427.65	
16672-87-0	Ethephon	347.65	
16673-34-0	N-[2-[4-(Aminosulfonyl)phenyl]ethyl]-5-chloro-2-methoxybenzamide	487.15	
16676-91-8	α-Amino-β-methylaminopropionic acid	439.15	
1668-10-6	Glycinamide hydrochloride	476.65	
1668-53-7	2-(2,4-Dihydroxyphenyl)-4,6-bis(2,4-dimethylphenyl)-1,3,5-triazine	471.15	
1668-54-8	2-Amino-4-methoxy-6-methyl-1,3,5-triazine	529.65	
16681-70-2	1H-1,2,3-Triazole-5-carboxylic acid	486.15	
16681-78-0	2-Methyl-2H-tetrazole	282.65	
16687-61-9	5-(4-Chlorophenyl)-2H-tetrazole	432.65	
16688-98-5	Propanenitrile, 3,3′-iminobis-, monohydrochloride	420.65	
1669-86-9	N-[2-(1H-Imidazol-5-yl)ethyl]-9H-purin-6-amine	529.65	
16690-44-1	N-(7-Methoxy-9H-fluoren-2-yl)acetamide	478.65	
16691-43-3	3-Amino-5-mercapto-1,2,4-triazole	576.15	
16694-17-0	4-Bromo-3-thiophenecarboxylic acid	424.15	
16694-30-7	4-Oxooctadecanoic acid	365.4	
16695-54-8	Acetoacetylmorpholine	347.15	
16696-65-4	1,11-Dibromoundecane	439.15	
1670-14-0	Benzamidine, hydrochloride	360.15	
1670-17-3	N,N-Dimethyl-2,4-dinitroaniline	360.15	
1670-46-8	2-Acetylcyclopentanone	338.15	
1670-81-1	1H-Indole-5-carboxylic acid	481.65	
1670-82-2	1H-Indole-6-carboxylic acid	516.65	
1670-83-3	1H-Indole-7-carboxylic acid	482.15	
1670-84-4	1H-Indole-2-carboxamide	508.15	
1670-87-7	Indole-5-carboxamide	439.4	
16703-45-0	O-Methyl N,N-dimethylcarbamothioate	276.35	
16709-86-7	(Chloromethyl)ethenyldimethylsilane		394.65
1671-18-7	2-Chloro-1-methyl-4-(methylsulfonyl)benzene	368.65	
1671-49-4	1-Methyl-4-(methylsulfonyl)-2-nitrobenzene	392.65	
1671-75-6	Heptanophenone	289.55	556.45
1671-76-7	Butyl 4-methoxyphenyl ketone	295.9	
1671-77-8	1-(4-Methylphenyl)-1-pentanone	290.15	534.15
1671-82-5	1-Methyl-2-nitroimidazole	374.15	
1671-89-2	2,5-Bis(2-pyridyl)-1,3,4-oxadiazole	428.65	
16712-64-4	6-Hydroxy-2-naphthoic acid	516.65	
16713-66-9	1,1-Cyclopentanediacetic acid	449.65	
16714-41-3	Silicic acid (H4SiO4), tetrakis(4-methylphenyl) ester	343.65	
16714-77-5	1,3-Dichloro-2-butanone		439.65
16715-79-0	N-(2,4-Dimethoxyphenyl)-3-oxobutanamide	366.15	
16715-80-3	N-(5-Chloro-2,4-dimethoxyphenyl)-3-oxobutanamide	386.15	
16716-13-5	m-Quinquephenyl	370.65	
1672-28-2	1,2,3,6-Tetrahydro-1,3-dimethyl-2,6-dioxo-7H-purine-7-propanesulfonic acid	320.65	
1672-46-4	Digoxigenin	495.15	
1672-88-4	Furagin	536.15	
16721-38-3	cis-Piperitol	301.15	
16721-80-5	Sodium hydrosulfide	623.15	
16722-51-3	p-Toluenesulfonate	540.65	