CAS	name	Tm	Tb
18073-84-2	1,3-Di-(N-β-hydroxyethyl-4-piperidyl)propane	368.15	
18076-92-1	Silane, ethylidenebis[trichloro-		464.15
18077-42-4	Tris[(trimethylsilyl)methyl]phosphine	341.15	
1808-12-4	Bromodiphenhydramine hydrochloride	417.65	
1808-63-5	(3β)-3-Hydroxy-16-methylpregna-5,16-dien-20-one	466.65	
18084-64-5	1,4,7,10-Tetrabenzyl-1,4,7,10-tetraazacyclododecane	414.15	
18084-97-4	1,1′,1′′-(1-Chloro-1-ethenyl-2-ylidene)tris[benzene]	391.15	
18085-97-7	Jaceosidin	532.65	
1809-02-5	2-Chloro-3-methyl-1,3-butadiene		310.15
1809-05-8	3-Iodopentane		418.15
1809-10-5	3-Bromopentane	146.95	391.75
1809-19-4	Dibutyl phosphite	343.65	
1809-21-8	Dipropyl phosphonate	332.65	
1809-26-3	4-Bromo-2-pentene		391.65
18092-54-1	4-Methoxy-2-nitrobenzenesulfonyl chloride	347.65	
18097-52-4	Methanone, (2-amino-5-chlorophenyl)phenyl-, oxime	438.65	
18102-38-0	1-Methoxy-3,5-dimethyl-2-nitrobenzene	309.15	
18103-42-9	5,7-Dihydroxy-3′,4′,5′-trimethoxyflavone	537.65	
18108-22-0	(α-Aminobenzyl)phosphonic acid	545.15	
18109-39-2	N-(2,6-Dimethylphenyl)benzamide	441.65	
18109-80-3	Butamirate		420.15
18109-81-4	Butamirate citrate	348.15	
1811-31-0	GalNAc	432.65	
18113-03-6	2-Chloro-4-methoxyphenol	319.65	
1812-30-2	Bromazepam	510.65	
1812-50-6	2-Methyl-2-hexanethiol		419.15
18123-20-1	4-Hydroxyacridine	390.15	
18138-03-9	Propylpyrazine		364.15
1814-89-7	1,1,1,3,3-Pentafluoro-2-propanol		354.15
18141-43-0	Dichlorodipropoxysilane		452.65
18143-31-2	Dimethylpropylsilane		346.65
18143-33-4	(Chloromethyl)methoxydimethylsilane		389.9
18144-52-0	3-(4-Morpholinylcarbonyl)-2H-1-benzopyran-2-one	454.15	
18146-00-4	Allyl trimethylsilyl ether	371.65	374.15
18147-18-7	Dichloro(1,1-dimethylethyl)methylsilane	362.15	404.15
18147-23-4	Butyldichloromethylsilane		421.15
18152-73-3	Dihydro-4-iodo-5-methyl-2(3H)-furanone	313.65	
18156-74-6	(Trimethylsilyl)imidazole	378.65	
18157-31-8	(3-Chloropropyl)dimethylsilane		411.65
181587-01-9	Ethiprole	453.15	
1816-78-0	Pregn-4-ene-3,20-dione, 6,16-dimethyl-, (6α,16α)-	387.65	
1816-96-2	1,4-Dimethyl-2-[(4-methylphenyl)sulfonyl]benzene	382.15	
18161-94-9	(1R,5S,11aS)-Decahydro-1,5-methano-8H-pyrido[1,2-a][1,5]diazocin-8-one	386.65	423.15
18162-48-6	tert-Butyldimethylsilyl chloride	360.15	399.15
18162-84-0	Chlorodimethyloctylsilane		496.65
181632-25-7	6-Chloro-2,3-dihydro-5-methyl-N-[6-[(2-methyl-3-pyridinyl)oxy]-3-pyridinyl]-1H-indole-1-carboxamide	455.15	
18164-94-8	Pyridinium, 1-(2-propen-1-yl)-3-sulfo-, inner salt	447.15	
18165-68-9	Diethoxysilane		364.15
18166-02-4	(Trimethylsilylmethyl)amine		367.65
18167-15-2	2,3-Dihydro-3-hydroxy-2-phenyl-1H-isoindol-1-one	423.15	
18168-01-9	N′-Ethyl-N,N-diphenylurea	348.2	
18169-57-8	Trichloro(2-methylpropyl)silane		416.45
181695-72-7	Valdecoxib	445.65	
1817-13-6	3,6-Dichloro-2-(trichloromethyl)pyridine	320.65	
1817-47-6	1-Isopropyl-4-nitrobenzene		395.15
1817-57-8	4-Phenyl-3-butyn-2-one	277.4	
1817-73-8	2-Bromo-4,6-dinitroaniline	426.15	
1817-74-9	1,1′-Methylenebis[4-nitrobenzene]	460.15	
1817-89-6	2-Ethoxypentane		378.65
1817-90-9	(2-Ethoxyethyl)benzene		467.65
18171-14-7	(3-Chloropropyl)methoxydimethylsilane		443.65
18171-56-7	Chlorobis(chloromethyl)methylsilane	445.15	445.65
18171-59-0	Chloro(dichloromethyl)dimethylsilane	225.15	422.15
18171-74-9	tert-Butyltrichlorosilane	371.65	415.65
18172-33-3	Cyclopiazonic acid	518.65	
18172-67-3	(-)-β-Pinene	212.15	439.15
18173-74-5	(2-Methoxyethoxy)trimethylsilane		401.15
18178-04-6	o-Carborane-1-carboxylic acid	423.65	
18178-47-7	Disperse Yellow 88	443.15	
18179-39-0	Methyl 2-hydroxy-4-iodobenzoate	333.15	
1818-06-0	1-Butyl 1,4-benzenedicarboxylate	397.15	
1818-07-1	(Octyloxy)benzene	281.15	558.15
1818-28-6	2,4,5-Trimethoxyacetophenone	375.65	
1818-71-9	Isoguanosine	512.15	
18181-08-3	3-Hydroxy-α-methyl-L-tyrosine methyl ester	438.65	
18181-70-9	Iodofenphos	345.65	
18181-80-1	Bromopropylate	350.15	
18186-71-5	Dodecyltriethylammonium bromide	395.65	
18186-97-5	Dimethyltetramethoxydisiloxane		438.15
18187-06-9	Trimethylsilyl N-(trimethylsilyl)sulfamate	317.15	
18189-02-1	Isopropyl anthranilate		544.6
18194-24-6	1,2-Dimyristoyl-sn-glycero-3-phosphocholine	296.15	
18194-25-7	1,2-Dilauroyl-sn-glycero-3-phosphocholine	272.15	
181940-38-5	1,1′,1′′,1′′′-(Hexahydro-5,2,6-(iminomethenimino)-1H-imidazo[4,5-b]pyrazine-1,3,8,10(2H)-tetrayl)tetrakis[ethanone]	513.15	
18197-22-3	Formamide, N-formyl-	314.15	
182-01-4	7,8,15,16,23,24-Hexaoxatrispiro[5.2.5.2.5.2]tetracosane	363.15	
182-55-8	Spiro[1,3-benzodioxole-2,1′-cyclohexane]	320.15	
1820-09-3	trans-Verbenol	297.15	
1820-59-3	2,2′,4,4′-Tetranitro-1,1′-biphenyl	419.65	
1820-73-1	L-Glutamic acid, 5-hydrazide	436.65	
1820-80-0	1H-Pyrazol-3-amine	310.15	
1820-92-4	1,4-Benzenedicarboxamide, 2-chloro-N1,N4-bis[4-(4,5-dihydro-1H-imidazol-2-yl)phenyl]-, hydrochloride (1:2)	623.15	
1820-99-1	3,3′-Thiobis[6-hydroxybenzoic acid]	542.65	
18202-73-8	Propanimidamide, 2,2-dimethyl-, hydrochloride (1:1)	464.65	
18209-60-4	1-Chloro-N,N,1,1-tetramethylsilanamine		381.65
1821-02-9	2-Oxovaleric acid	279.65	452.15
1821-12-1	4-Phenylbutyric acid	325.15	563.15
1821-16-5	Eticoumarolum	451.15	
1821-27-8	4,4′-Dinitrodiphenylamine	489.15	
1821-33-6	N-Benzoyl-N′-phenylurea	482.15	
1821-36-9	N-Cyclohexylbenzenamine	289.15	552.15
1821-39-2	2-Propylaniline		499.15
1821-40-5	N-Ethyl-4-methyl-N-phenylbenzenesulfonamide	340.15	
1821-47-2	5-Methyltryptamine	368.15	
1821-52-9	Indole-3-lactic acid	371.65	
18212-21-0	4-Methyl-1,2,3-thiadiazole-5-carboxylic acid	449.15	
18212-23-2	4-(4-Chlorophenyl)-1,2,3-thiadiazole	411.15	
18212-29-8	5-Phenyl-1,2,3-thiadiazole	326.15	
18216-74-5	5-Phenyl-2-hexanone		396.65
18218-04-7	Ethanaminium, N,N,N-triethyl-, salt with cyanic acid (1:1)	557.15	
1822-45-3	N1,N1,N2,N2-Tetramethyl-1,2-propanediamine	451.15	414.15
1822-49-7	Carbamimidothioic acid, 2-pyridinylmethyl ester, hydrochloride (1:2)	473.15	
1822-51-1	4-Picolyl chloride hydrochloride	438.65	
1822-73-7	(Ethenylthio)benzene		473.65
1822-74-8	Ethene, (methylthio)-		333.15
182234-02-2	(3aS,5aS,14aR)-3,3a,11,12-Tetrahydro-9,13-dihydroxy-3a-methoxy-11-methyl-5a-[[(2S,5S,6S)-tetrahydro-5-hydroxy-6-methyl-2H-pyran-2-yl]oxy]-2H,5H-furo[2′′,3′′:4′,5′]furo[3′,4′:6,7]naphth[2,3-e]isoindole-2,6,10,14(5aH)-tetrone	375.65	
18226-17-0	2,2′-[(4-Nitrophenyl)imino]bis[ethanol]	374.65	
1823-14-9	5-Phenyl-1-pentyne	377.65	
1823-44-5	2-(2-Thiazolylazo)-p-cresol	402.9	
1823-91-2	2-Phenylpropionitrile	483.15	504.15
1823-99-0	3-Amino-3-phenyl-2-propenenitrile	359.65	
182349-12-8	Rupatadine fumarate	470.65	
18236-23-2	6,6-Dimethyl-2,5,7,10-tetraoxa-6-silaundecane		476.65
1824-50-6	Benzylhydrochlorothiazide	534.15	
1824-52-8	Bemetizide	508.65	
1824-58-4	Ethiazide	542.65	
1824-69-7	1-Demethyl-4,5-dihydrodiazepam	458.15	
1824-74-4	(±)-Oxazepam acetate	515.65	
1824-81-3	2-Amino-6-methylpyridine	314.15	481.65
1824-94-8	Methyl β-D-galactopyranoside	447.15	
18243-41-9	(Bromomethyl)trimethylsilane		389.65
18244-73-0	Tetradecyl gallate	372	
18244-79-6	Naphtho[1,2-d]thiazolium, 1-methyl-2-[2-(2-methyl-1H-indol-3-yl)-3-(1-methylnaphtho[1,2-d]thiazol-2(1H)-ylidene)-1-propen-1-yl]-, 4-methylbenzenesulfonate (1:1)	560.65	
18244-95-6	Triethenylmethylsilane	380.75	375.15
18246-71-4	Butoxyethoxydimethylsilane		428.15
18247-80-8	N-(4-Nitrophenyl)-2-oxopropanehydrazonoyl chloride	469.15	
18248-94-7	Quinolinium, 1-ethyl-2-[3-(3-ethyl-2(3H)-benzothiazolylidene)-1-propen-1-yl]-, iodide (1:1)	443.65	
1825-00-9	Methyl β-L-arabinopyranoside	442.65	
1825-19-0	Pentachlorothioanisole	368.65	
1825-21-4	Pentachloroanisole	382.15	582.15
1825-30-5	1,5-Dichloronaphthalene	380.15	
1825-31-6	1,4-Dichloronaphthalene	340.65	561.15
1825-59-8	1,1′-(Ethoxymethylsilylene)bis[benzene]	246.15	
1825-61-2	Methoxytrimethylsilane		330.65
1825-62-3	Trimethylethoxysilane	190.15	349.15
1825-63-4	Trimethylpropoxysilane		374.65
1825-64-5	Trimethyl(1-methylethoxy)silane		360.15
1825-65-6	Butoxytrimethylsilane		394.65
1825-68-9	Chloromethoxydimethylsilane		350.15
1825-74-7	Dichloromethoxymethylsilane		352.65
18254-13-2	2,4,6-Tris(1-phenylethyl)phenol		523.15
18256-48-9	2-Hydroxy-1-(4-hydroxy-3-methoxyphenyl)ethanone	432.15	
18259-05-7	2,3,4,5,6-Pentachlorobiphenyl	397.15	
18259-42-2	2-Amino-1-(4-hydroxyphenyl)-1-propanone	442.15	
1826-12-6	4-Phenylthiazole	506.65	548.15
1826-17-1	4-Methyl-2-phenylthiazole	302.65	
1826-28-4	Phenyl 2-pyridyl ketoxime	424.15	
1826-56-8	N-Ethyl-N-(4-nitrophenyl)acetamide	415.15	
18261-92-2	3-Octadecanone	324.15	
18263-25-7	2-Bromohexadecanoic acid	326.4	
18264-71-6	2,2′-Dinitrodiphenylamine	436.65	
18264-75-0	N-Nitrohydrazinecarboximidamide	458.15	
18266-55-2	N-(2-Hydroxyethyl)propionamide	320.15	
18267-08-8	Zirconium ethoxide	445.15	
18267-36-2	Ethyl 3-hydroxy-3-methylbutanoate	414.9	452.65
182688-83-1	2-Propenoic acid, polymer with docosyl 2-propenoate	337.55	
182699-77-0	(-)-Wine lactone	323.65	
18270-17-2	Trimethyl-1-pentyn-1-ylsilane		406.65
18271-22-2	N-2-Naphthalenylbenzamide	438.15	
18271-82-4	2,2,2-Trichloro-1-methoxyethanol		372.15
18276-53-4	1-(Trimethylsilyl)-1H-pyrrole	302.15	424.15
1828-12-2	1-Propanone, 1-(4-fluorophenyl)-3-(1-piperidinyl)-, hydrochloride (1:1)	437.15	
18281-05-5	Ethyl eicosanoate	323.15	568.15
18282-10-5	Tin oxide (SnO2)	1903.15	
18282-40-1	1-Ethyl-2-iodobenzene		493.65
18282-51-4	4-Iodobenzyl alcohol	344.4	
18282-59-2	4-Bromo-1,2-dichlorobenzene	298.15	510.15
18284-36-1	Hydrotetrakis(triphenylphosphine)rhodium	374.15	
1829-32-9	3-Chlorosalicylic acid	454.15	
1829-40-9	Hexaphenyldisiloxane	497.65	767.15
1829-41-0	1,1′,1′′-(Methoxysilylidyne)tris[benzene]	327.9	
1829-92-1	Sulfonium, triethyl-, iodide (1:1)	418.15	
18292-38-1	Methallyltrimethylsilane		386.15
18292-97-2	2,3,6-Trinitrotoluene	385.15	
18293-51-1	Thiocyanic acid, (trimethylsilyl)methyl ester		469.65
18294-87-6	1-Cyclohexene-1-acetic acid	311.15	
18295-59-5	2-Propylpentanal		433.15
18296-45-2	Didrovaltrate	336.65	
18297-63-7	N,N′-Bis(trimethylsilyl)urea	496.15	
18299-54-2	1,2-Ethanediamine, hydrochloride (1:1)	416.15	
183-84-6	7,8,15,16-Tetraoxadispiro[5.2.5.2]hexadecane	400.65	
1830-32-6	Azintamide	370.15	
1830-56-4	1-Ethylbenz[cd]indol-2(1H)-one	341.15	
18300-04-4	1,2-Dibromo-4,5,6,7,8,8-hexachloro-2,3,3a,4,7,7a-hexahydro-4,7-methano-1H-indene	338.15	
18300-89-5	Ethyl 2-cyano-3-phenyl-2-butenoate	319.65	
18304-79-5	1,3,6,8-Tetraazatricyclo[6.2.1.13,6]dodecane	461.15	
18304-82-0	2,4,6,8,10,12-Hexaethenyl-2,4,6,8,10,12-hexamethylcyclohexasiloxane	152.15	
18306-29-1	Silanol, trimethyl-, 1,1′-sulfate	330.15	
183065-68-1	4-Bromo-2,6-difluorobenzoic acid	470.15	
18309-32-5	(+)-Verbenone	282.95	500.65
1831-65-8	Dihexylmethylphosphine oxide	315.65	
1831-69-2	2,5-Cyclohexadiene-1,4-dione, 1-[O-(phenylsulfonyl)oxime]	403.65	
18310-19-5	4-Methyl-1,2-cyclohexanedione 1,2-dioxime	441.15	
18310-55-9	rel-(1R,2S,4S)-3,3-Dimethylbicyclo[2.2.1]heptane-2-methanol	357.15	
18312-21-5	Isomyristicin	317.15	
183208-35-7	5-Bromo-1H-pyrrolo[2,3-b]pyridine	448.15	
18323-58-5	4-Methylumbelliferyl oleate	333.15	
183232-66-8	1-(2,4-Dichlorophenyl)-5-(4-iodophenyl)-4-methyl-N-1-piperidinyl-1H-pyrazole-3-carboxamide	468.65	
18328-90-0	N-Ethyl-2-methylallylamine		375.15
1833-51-8	[(Chloromethyl)dimethylsilyl]benzene		498.15
1833-53-0	Trimethyl[(1-methylethenyl)oxy]silane	315.65	367.65
18331-34-5	3-Ethyl-4-oxo-5-benzylidene-1,3-thiazolidine-2-thione	423.15	
183319-69-9	Erlotinib hydrochloride	493.15	
183321-74-6	Erlotinib	432.65	
183322-16-9	Benzoic acid, 3,4-bis(2-methoxyethoxy)-, ethyl ester	329.65	
183378-02-1	2,3-Di-2-furanyl-6-methylquinoxaline	392.65	
18338-40-4	1,2,3-Trichlorobutane		441.15
18339-16-7	Androstenone	375.15	
18343-30-1	2,4-Dichloro-6-ethoxy-1,3,5-triazine	305.15	
18349-96-7	1-Ethoxy-3-phenoxy-2-propanol	356.15	
1835-04-7	Propioveratrone	332.65	
1835-11-6	1-(4-Benzyloxy-3-methoxyphenyl)ethanone	359.15	
1835-14-9	Propiovanillone	334.65	
1835-49-0	Tetrafluoroterephthalonitrile	471.15	
1835-51-4	4-Methyl hydrogen aspartate	465.15	
1835-52-5	Aspartic acid, 4-methyl ester, hydrochloride (1:1)	466.65	
1835-65-0	3,4,5,6-Tetrafluoro-1,2-benzenedicarbonitrile	356.15	
18355-75-4	2,3-Difluorobenzamide	383.65	
18356-28-0	Rolziracetam	449.65	
18358-53-7	3-Pinanone	485.15	
18359-88-1	Naphtho[1,2-d]thiazolium, 1-ethyl-2-[3-(1-ethylnaphtho[1,2-d]thiazol-2(1H)-ylidene)-1-propen-1-yl]-, iodide (1:1)	511.15	
1836-43-7	Piperazine, 1-[4-(4-methoxyphenoxy)butyl]-4-(2-pyridinyl)-, hydrochloride (1:2)	471.15	
1836-73-3	1-Chloro-3-methyl-2-(4-nitrophenoxy)benzene	356.65	
1836-74-4	1-Chloro-4-(4-nitrophenoxy)benzene	349.65	
1836-75-5	Nitrofen	343.65	
1836-77-7	Chlornitrofen	378.65	
18361-03-0	2,3-Dihydrothieno[3,4-b]-1,4-dioxin-5,7-dicarboxylic acid	593.5	
18361-45-0	Leucomycin A5	394.65	
18361-48-3	Leucomycin A6	409.15	
18362-51-1	1,3-Bis(4-methoxyphenyl)-1,3-propanedione	387.15	
18365-42-9	α-Chlorocinnamaldehyde	305.25	
18368-63-3	2-Chloro-6-methylpyridine		456.65
18368-76-8	2-Chloro-3-methylpyridine	466.15	462.65
18369-83-0	Methyl chlorothioformate		383.15
1837-91-8	1,2,3,4,5,6-Hexabromocyclohexane	495.15	
18370-59-7	Peroxide, bis(4-fluoro-4,4-dinitro-1-oxobutyl)	362.65	
18375-61-6	N-Octyl-D-gluconamide	429.65	
18375-62-7	N-Decyl-D-gluconamide	426.65	
18375-63-8	N-Dodecyl-D-gluconamide	426.15	
18378-20-6	7-Benzylamino-4-nitro-2,1,3-benzoxadiazole	487.65	
18378-89-7	Mithramycin	454.65	
1838-04-6	Tetradecylammonium chloride	573.15	
1838-07-9	1-Heptadecanamine, hydrochloride (1:1)	431.15	
1838-08-0	Octadecylammonium chloride	435.65	
1838-13-7	Dimethylaminoborane	346.15	349.15
1838-39-7	Ethyl 4-(ethoxycarbonyl)-1-piperidineacetate		375.15
1838-56-8	N-(3-Hydroxy-9H-fluoren-2-yl)acetamide	510.65	
1838-59-1	Allyl formate		356.75
1838-94-4	2-Methyl-2-vinyloxirane		351.9
183802-98-4	5-Bromo-2-chlorophenol	330.15	
18381-45-8	4,4-Diethoxybutanenitrile		378.15
18387-19-4	1,2,2,4-Tetramethyl-1-aza-2-silacyclopentane		410.15
18388-45-9	Diethoxymethyl-2-propen-1-ylsilane		428.15
18389-46-3	β-Amino-2-thiophenepropanoic acid	475.15	
1839-11-8	9,11-Octadecadienoic acid	305.65	
1839-63-0	1,3,5-Trimethylcyclohexane		410.65
18390-00-6	2-Phenyl-4,4,5,5-tetramethylimidazoline-1-oxyl 3-oxide	415.15	
18390-55-1	Lithium picrate	574.65	
18395-30-7	Isobutyltrimethoxysilane		427.15
18395-90-9	Dichlorobis(1,1-dimethylethyl)silane	258.15	463.65
18395-92-1	Dichlorobis(2-methylpropyl)silane		423.15
18397-07-4	(+)-Geissoschizoline	358.65	
18398-73-7	4H-1-Benzopyran-2-carboxylic acid, 4-oxo-, methyl ester	386.15	
184-32-7	1,4-Dithiaspiro[4.6]undecane	329.15	
1840-42-2	Fluorotrinitromethane	244.15	356.9
18403-59-3	3,4-Dihydro-2,2,4-trimethyl-7-(1,1,3,3-tetramethylbutyl)-2H-1-benzopyran-6-ol	398.15	
18404-43-8	(3β,5β)-3-[(2,6-Dideoxy-β-D-ribo-hexopyranosyl)oxy]-14-hydroxycard-20(22)-enolide	456.65	
18409-46-6	(2E,4E)-2,4-Hexadienedial	390.15	
1841-19-6	Fluspirilene	461.9	
18410-18-9	γ-(4-Chlorophenyl)-γ-butyrolactone	323.15	
18410-94-1	rel-(1R,2R,4S)-3,3-Dimethylbicyclo[2.2.1]heptane-2-methanol	331.65	
18412-96-9	GB 2a	492.65	
18413-31-5	1,4-Piperazinedicarboximidamide, N1,N4-bis[[(4-chlorophenyl)amino]iminomethyl]-2,5-dimethyl-, hydrochloride (1:2)	531.65	
18414-36-3	1,1′-[(Dichlorosilylene)bis(methylene)]bis[benzene]	324.15	
18417-00-0	(12S)-12-Hydroxyoctadecanoic acid	350.35	
18420-09-2	1,3-Diethoxy-1,1,3,3-tetramethyldisiloxane	139.15	434.15
18423-69-3	(2S,3R,4R)-3,4-Bis(1,3-benzodioxol-5-ylmethyl)tetrahydro-2-furanol	404.65	
1843-03-4	Tris(2-methyl-4-hydroxy-5-tert-butylphenyl)butane	474.15	
1843-05-6	2-Hydroxy-4-octoxybenzophenone	318.65	
18431-36-2	Bromohexylmercury	391.65	
18434-12-3	1,2-Diphenyl-1H-indole	354.15	
18434-76-9	Cholan-24-oic acid, 3,7,12-trioxo-, ion(1-), (5β)-, 1-carboxy-N,N,N-trimethylmethanaminium	463.15	
18435-45-5	1-Nonadecene	296.15	602.15
18435-53-5	1-Triacontene	383.65	
1844-01-5	Bis(4-hydroxyphenyl)diphenylmethane	570.15	
1844-09-3	Octadecyl sulfide	337.15	
18441-43-5	5-Methylbenzofuran		471.15
18441-55-9	6-Ethyl-2,3-dimethylphenol	326.65	
18441-56-0	2-Methyl-4-propylphenol		390.15
18441-60-6	2,3,4,5-Tetramethylpyridine		505.15
18441-61-7	2,4,8-Trimethylquinoline	315.15	542.65
18444-66-1	Cucurbitacin E	503.15	
18444-79-6	β-Vetivone	317.65	
184475-35-2	Gefitinib	469.15	
18448-68-5	1-(Dodecyloxy)-3-[(2-hydroxyethyl)amino]-2-propanol	335.65	
1845-25-6	(1S,2S,5S)-2-Hydroxy-2,6,6-trimethylbicyclo[3.1.1]heptan-3-one	312.65	
18453-32-2	(4-Bromophenyl)-2-pyridinylmethanone	319.15	
18457-04-0	Propanedioic acid, 1,3-bis(trimethylsilyl) ester	329.15	
18457-86-8	N-(2-Methylphenyl)benzenesulfonamide	394.15	
1846-74-8	3-Benzoyl-2H-1-benzopyran-2-one	411.15	
1846-76-0	3-Carbethoxycoumarin	366.15	
1846-78-2	2-Oxo-2H-1-benzopyran-3-carboxamide	546.65	
1846-90-8	2-Oxo-N-(phenylmethyl)-2H-1-benzopyran-3-carboxamide	433.15	
18464-39-6	Caroxazone	477.15	
18465-38-8	Oxolonic acid	538.65	
18465-99-1	1-Linolenoylglycerol	557.15	
18467-77-1	2,3:4,6-di-O-Isopropylidene-2-keto-L-gulonic acid	347.15	
1847-60-5	Butanedioic acid, 1-cyclohexyl ester, sodium salt (1:1)	323.65	
1847-63-8	Nafoxidine hydrochloride	439.65	
1847-84-3	Carbonic acid, ethyl 2-methoxyphenyl ester		534.15
18470-76-3	3-Decyldihydro-2,5-furandione	343.65	
18470-94-5	Nandrolone cyclohexanecarboxylate	361.65	
18471-20-0	Ditazole	370.15	
1848-24-4	3-Hydroxy-3-phenyl-1,3-dihydroindol-2-one	482.65	
1848-84-6	2-Ethylbenzimidazole	447.65	
18480-07-4	Strontium hydroxide	808.15	
18480-53-0	3,4-Dichloro-5-isothiazolecarboxylic acid	452.4	
18481-23-7	Butanoic acid, dithiobis[3-[1-[[(4-amino-2-methyl-5-pyrimidinyl)methyl]formylamino]ethylidene]-3,1-propanediyl] ester	407.15	
18487-39-3	2,3,5-Trichlorobenzenamine	346.15	
1849-27-0	1,4-Bis(2-phenylethynyl)benzene	458.15	
1849-29-2	Methan-d3-ol	448.65	334.35
1849-36-1	4-Nitrobenzenethiol	403.65	
18493-30-6	Metochalcone	370.15	
18493-34-0	3-(2,4-Dimethoxyphenyl)-1-(4-methoxyphenyl)-2-propen-1-one	360.15	
18494-87-6	Benzo[b]thiophene-3-sulfonyl chloride	363.15	
18495-30-2	1,1,2,3-Tetrachloropropane		452.65
185-65-9	Spiro[2.5]octane		398.65
185-70-6	1-Oxaspiro[2.5]octane		376.65
185-94-4	Bicyclo[2.1.0]pentane		318.65
1850-14-2	Tetramethyl orthocarbonate	268.15	387.15
1850-15-3	Benzenecarbothioic acid, 1,1′-anhydrosulfide	320.65	
18503-71-4	N-(2,3-Dihydro-1,5-dimethyl-3-oxo-2-phenyl-1H-pyrazol-4-yl)octadecanamide	415.65	
18503-89-4	N,N-Dimethyl-1,1-bis(1-methylethoxy)methanamine		426.65
18504-81-9	1H-Pyrido[2,3-b][1,4]thiazin-2(3H)-one	483.15	
18507-89-6	Decoquinate	516.65	
18508-61-7	2,2′-Thiobis[4,6-dimethylphenol]	366.4	
1851-23-6	5β-Androstane-3α,17β-diol	502.15	
1851-71-4	Methanethioic acid, tetrathiobis-, O,O-diethyl ester	315.15	
1851-77-0	Methanethioic acid, trithiobis-, O,O-diethyl ester	408.15	
18513-98-9	1,1′-(1E)-1,2-Ethenediylbis[3,4-dimethoxybenzene]	426.65	
18514-76-6	5-Nitroquinoxaline	369.65	
1852-04-6	Undecanedioic acid	383.15	
1852-14-8	N,N′′-1,2-Ethanediylbis[urea]	465.65	
1852-16-0	N-(Butoxymethyl)acrylamide	271.65	
1852-17-1	Tetrahydro-2(1H)-pyrimidinone	538.65	
1852-18-2	Tetrahydro-5-hydroxy-2(1H)-pyrimidinone	483.65	
1852-53-5	5α-Androstane-3α,17β-diol	509.4	
1852-58-0	6β-Fluoro-17β-hydroxyandrost-4-en-3-one	443.15	
18521-07-8	(3Z)-2-Methyl-3-octen-2-ol		450.15
18522-93-5	Benzenesulfonamide, sodium salt (1:1)	424.65	
18523-48-3	2-Azidoacetic acid	289.15	
18524-94-2	(-)-Loganin	496.15	
18525-99-0	4,4′-Thiobis[2,6-dimethylphenol]	461.4	
1853-37-8	Podophyllic acid	433.15	
1853-88-9	6-(Phenylmethyl)-1,3,5-triazine-2,4-diamine	460.65	
18530-30-8	(1R,2S,4R)-4,7,7-Trimethyl-3-oxobicyclo[2.2.1]heptane-2-carboxylic acid	400.65	
18530-56-8	Noruron	450.15	
18531-44-7	(3β,5β)-3-(β-D-Glucopyranosyloxy)-5,14-dihydroxycard-20(22)-enolide	505.65	
18531-94-7	(+)-BINOL	342.15	
18531-99-2	(-)-Binol	484.65	
18537-69-4	Propanal, 2-chloro-2-methyl-, oxime	377.15	
18542-37-5	(3aR,4S,5aR,9aR,9bR)-5a-Ethenyloctahydro-4-hydroxy-3,9-bis(methylene)-2H-furo[2,3-f][2]benzopyran-2,8(3H)-dione	452.15	
18542-42-2	2-(Methylthio)ethylamine		420.15
18546-37-7	2-Deoxy-L-ribose	354.65	
18549-40-1	1,2-O-Isopropylidene-α-D-glucofuranose	433.4	
1855-09-0	1-Phenyl-1,2-propanediol	329.65	
1855-23-8	5-Cyclohexyl-2-hydroxybenzoic acid	422.65	