CAS	name	Tm	Tb
27619-90-5	3,3,4,4,5,5,6,6,7,7,8,8,9,9,10,10,10-Heptadecafluoro-1-decanesulfonyl chloride	334.15	
2763-67-9	N-Butylpentanamide	454.15	
2763-96-4	Muscimol	448.15	
27631-29-4	2,4-Dichloro-6,7-dimethoxyquinazoline	431.15	
27634-89-5	4-Cyclohexylbenzaldehyde		433.15
27638-00-2	Glyceryl dilaurate	330.95	
27639-98-1	2,3,3,3-Tetrafluoro-2-[1,1,2,3,3,3-hexafluoro-2-[1,1,2,3,3,3-hexafluoro-2-(1,1,2,2,3,3,3-heptafluoropropoxy)propoxy]propoxy]propanoyl fluoride		388.15
2764-03-6	N-Linoleoyl glycine	273.3	
2764-73-0	15-Nonacosanone	338.65	
2764-87-6	2,3-Dihydro-2,2-dimethyl-1H-2-silaindene		483.15
27642-27-9	4-Hydroxy-N-methylbenzamide	395.15	
2765-04-0	2,4,6-Trimethyl-1,3,5-trithiane	374.15	
2765-11-9	Pentadecanal	297.65	
2765-18-6	1-Propylnaphthalene	264.55	547.65
2765-97-1	Benzeneacetic acid, α-phenyl-α-(2-propyn-1-yloxy)-, 2-(dimethylamino)ethyl ester, hydrochloride (1:1)	435.65	
27652-89-7	α-(4-Chlorophenyl)-2-pyridinemethanol	353.65	
27653-49-2	6-Ethyl-5-phenyl-2,4-pyrimidinediamine	511.65	
27653-63-0	5-Ethyl-5-methyl-2,4,6(1H,3H,5H)-pyrimidinetrione	489.15	
27655-41-0	5-Isoquinolinecarbonitrile	411.15	
27655-95-4	(±)-5-Bromonaproxen	451.15	
2766-51-0	Sulfonium, (3-amino-3-carboxypropyl)dimethyl-, bromide (1:1)	413.15	
2766-74-7	5-Chloro-2-thiophenesulfonyl chloride	300.15	348.15
27665-39-0	1,4-Butanedisulfonic acid	357.15	
2767-47-7	Dibromodimethylstannane	347.15	
2767-54-6	Triethyltin bromide	259.15	496.15
2767-55-7	Diethyldiiodostannane	316.4	
2767-61-5	Bromotripropylstannane		526.65
2767-70-6	(4-Nitrobenzyl)triphenylphosphonium bromide	534.15	
2767-80-8	Tris(hydroxymethyl)phosphine	325.15	
2767-84-2	(+)-Camphorquinone	474.15	
2767-90-0	4-Piperidinopyridine	353.15	
27673-48-9	5,8-Dihydro-1-naphthol	348.15	
2768-02-7	Vinyltrimethoxysilane		396.15
2768-15-2	2-Butyl-1-hexanol		491.65
2768-41-4	1-Methoxy-2-butyne		372.9
2768-42-5	(R)-3-Hydroxy-3-phenylpropionic acid	393.15	
2768-53-8	N-[(Phenylmethoxy)carbonyl]-L-alanyl-L-phenylalanine	404.15	
2768-56-1	N-Benzyloxycarbonyl-DL-serine	398.15	
2768-90-3	Pinacyanol chloride	536.15	
27685-90-1	2-Oxo-2,3-dihydrobenzo[d]oxazole-6-sulfonyl chloride	459.65	
27685-94-5	4-Chlorothieno[3,2-c]pyridine	369.15	
27686-84-6	Masoprocol	458.65	
2769-30-4	Thiocyanic acid, 2-nitrophenyl ester	409.15	
2769-64-4	Butyl isocyanide		393.15
2769-71-3	2,6-Dimethylphenyl isocyanide	346.4	
27693-37-4	(3-Nitrophenyl)-2-pyridinylmethanone	395.15	
27693-38-5	(4-Nitrophenyl)-2-pyridinylmethanone	373.15	
27693-42-1	(3,4-Dimethoxyphenyl)-2-pyridinylmethanone	367.65	
27693-67-0	2-[(3-Carboxyphenyl)amino]benzoic acid	551.15	
27693-70-5	N-(3-Nitrophenyl)anthranilic acid	489.15	
27693-73-8	N-(3-Methoxyphenyl)anthranilic acid	409.15	
27696-24-8	2-[(2-Aminophenyl)amino]benzoic acid	483.15	
277-10-1	Cubane	403.65	406.15
2770-66-3	7-(3-Chloropropyl)-3,7-dihydro-1,3-dimethyl-1H-purine-2,6-dione	393.15	
27701-66-2	4-Bromo-3-nitro-1,1′-biphenyl	314.65	
27713-85-5	2,5-Bis[2-(1,3-dihydro-1,3,3-trimethyl-2H-indol-2-ylidene)ethylidene]cyclopentanone	521.65	
2772-45-4	2,4-Dicumylphenol	339.4	603.15
27722-45-8	2-[(4-Methylphenyl)sulfonyl]-1H-isoindole-1,3(2H)-dione	513.65	
27724-96-5	Cetraxate hydrochloride	512.15	
27725-17-3	2,2′-Methylenebis[4-(1,1,3,3-tetramethylbutyl)phenol]	427.15	
2773-50-4	2,6-Bis(1,1-dimethylethyl)-4-(4-morpholinylmethyl)phenol	366.65	
27737-55-9	Ethyl 4-(phenylmethoxy)-1H-indole-2-carboxylate	444.15	
27738-96-1	Carbonisocyanatidic chloride	337.15	337.15
27740-01-8	Scutellarin	478.65	
27749-40-2	2-(1,1-Dimethylethyl)benzeneacetic acid	357.15	
27755-15-3	Ditolylethane		570.65
27757-85-3	2-Thiophenemethanamine		350.15
27762-78-3	Kethoxal		418.15
2777-37-9	Chloro(2-methylphenyl)mercury	419.15	
2777-65-3	10-Undecynoic acid	315.15	403.15
27773-65-5	(+)-Apovincaminic acid	400.65	
27776-01-8	Methyl(phenylmethyl)benzene	218.15	
27779-29-9	Isopinocampheol	328.15	
2778-04-3	Endothion	369.15	
2778-41-8	α,α,α′,α′-Tetramethylxylylene diisocyanate	348.15	
2778-42-9	1,3-Bis(1-isocyanato-1-methylethyl)benzene		379.15
2778-96-3	Stearyl stearate	335.15	
27782-63-4	Santin	431.15	
2779-81-9	3,6-Dichloro-4-pyridazinol	472.65	
27798-46-5	Benzo[c]naphtho[2,1-p]chrysene	506.65	
27798-60-3	Methyl 2-methoxybenzeneacetate	343.8	
27799-91-3	5-Methoxybenzotriazole	398.15	
278-06-8	Tetracyclo[3.2.0.02,7.04,6]heptane		385.15
278-74-0	3-Oxatricyclo[3.2.1.02,4]octane	391.65	
27805-39-6	α-(4-Methoxyphenyl)-2-pyridinemethanol	404.65	
27807-84-7	4-Chloro-3-oxobutanoic acid	341.15	
2781-00-2	1,1′-[1,4-Phenylenebis(1-methylethylidene)]bis[2-(1,1-dimethylethyl) peroxide]	352.15	
2781-10-4	1,1′-(Dibutylstannylene) bis(2-ethylhexanoate)	330.15	490.15
2781-85-3	Cyclopropene	268.15	
27813-02-1	Hydroxypropyl methacrylate	184.15	369.15
27816-36-0	2-Chloropropanamide	355.15	
2782-04-9	D-Glucaro-3,6-lactone	407.15	
2782-07-2	D-Galactono-1,4-lactone	406.65	
2782-09-4	D-Arabinono-1,4-lactone	386.65	
2782-40-3	Butylbenzamide	314.65	
2782-57-2	Dichloroisocyanurate	499.7	
2782-70-9	Phosphorodithioic acid, S,S′-(phenylmethylene) O,O,O′,O′-tetramethyl ester	334.65	
2782-91-4	Tetramethylthiourea	316.65	518.15
27828-71-3	5-Hydroxynicotinic acid	572.15	
2783-17-7	1,12-Dodecanediamine	339.65	460.15
2783-72-4	Benzothiazolium, 3-methyl-2-[(3-methyl-2(3H)-benzothiazolylidene)methyl]-, iodide (1:1)	554.15	
2784-27-2	5-(4-Hydroxyphenyl)-5-phenylhydantoin	584.15	
2784-89-6	HC Red 1	502.65	
2784-94-3	HC Blue 1	375.9	
27846-22-6	Bis(2-phenylethyl) disulfide	330.65	
27848-84-6	Nicergoline	410.15	
2785-54-8	Tetradecylpyridinium chloride	350.15	
2785-89-9	4-Ethylguaiacol	266.15	509.65
2785-98-0	2,5-Dimethoxybenzoic acid	353.15	
27858-07-7	Octabromobiphenyl	639.15	
2786-31-4	Benzothiazolium, 3-methyl-, iodide (1:1)	493.15	
2786-43-8	3-Methyl-2(3H)-benzothiazoleselone	382.15	
2786-70-1	2,3-Dihydro-3-methyl-2-(3-methyl-2(3H)-benzothiazolylidene)benzothiazole	435.15	
2787-63-5	1,4-Dinonyl (2E)-2-butenedioate	298.9	
27876-94-4	Crocetin	559.15	
27878-36-0	α-(Hydroxyimino)-2-nitrobenzenepropanoic acid	434.15	
27879-07-8	Polyethylene glycol ethyl ether	528.15	
2788-23-0	9-Nitroso-9H-carbazole	355.65	
2788-28-5	1-Propanaminium, 3-cyano-2-hydroxy-N,N,N-trimethyl-, chloride (1:1), (2R)-	520.45	
27886-13-1	1-Chloro-3-(octadecyloxy)-2-propanol	310.65	
2789-44-8	Cyclohexyl(4-methylphenyl)methanone	337.65	
2789-92-6	3,5-Dichloroanthranilic acid	496.15	
27892-88-2	3-(4-Nitrophenyl)-2-propenenitrile	475.15	
27893-41-0	4-(Heptyloxy)benzaldehyde		436.15
27894-50-4	L-Lysine, N6-[(phenylmethoxy)carbonyl]-, methyl ester, hydrochloride (1:1)	349.15	
27896-84-0	1H-Benzimidazole, 6-nitro-, nitrate (1:1)	477.15	
27899-45-2	3,3-Dimethylbicyclo[2.2.1]heptane-2-methanol	336.15	
279-23-2	Norbornane	360.65	378.45
279-27-6	1-Azabicyclo[2.2.1]heptane	344.15	393.65
279-35-6	2,3-Dioxabicyclo[2.2.1]heptane	315.9	
279-49-2	7-Oxabicyclo[2.2.1]heptane		393.25
2790-16-1	N-(3,4-Dichlorophenyl)-1-methylcyclopropanecarboxamide	394.15	
27901-01-5	(11β,15β)-Hetisan-6,11,15-triol	544.15	
27905-38-0	N-[3-(Dimethylamino)phenyl]benzamide	436.15	
2791-29-9	Hexadecanal dimethyl acetal	283.15	
2791-84-6	L-Glutamic acid, 1,5-bis(phenylmethyl) ester, 4-methylbenzenesulfonate (1:1)	415.15	
27912-14-7	Levobunolol hydrochloride	483.15	
27919-85-3	N1,N1,N3,N3-Tetrakis(phenylmethyl)-1,3-benzenediamine	426.15	
27922-80-1	2-Naphthalenecarboxylic acid, 4,4′-methylenebis[3-hydroxy-, compd. with (2S,3S)-3,4-dimethyl-2-phenylmorpholine (1:2)	500.65	
27923-68-8	Ethylene glycol-isophthalic acid-neopentyl glycol-terephthalic acid copolymer	436.15	
27925-02-6	Ricinoleic acid homopolymer	260.85	
27931-91-5	1,3-Dimethyl 2-(hydroxymethylene)propanedioate	315.65	
27937-63-9	1,3-Benzenedicarboxylic acid, 5-sulfo-, 1,3-dimethyl ester, sodium salt (1:1), polymer with 1,4-dimethyl 1,4-benzenedicarboxylate and 1,2-ethanediol	521.35	
2794-72-1	Glycine, 2-fluoroethyl ester, hydrochloride	423.4	
27942-00-3	Methyl-2,4(1H,3H)-pyrimidinedione	574.15	
2795-39-3	Potassium perfluorooctanesulfonate	551.65	
27958-77-6	3-Amino-N,N-dimethylbenzenemethanamine	318.15	
27959-26-8	Nicomol	451.65	
2797-51-5	Quinoclamine	472.15	
27970-32-7	3-Methyloxazolidine		371.15
27970-79-2	1-Hydroxy-2-methyl-3-pentanone		464.65
27973-72-4	Pederin	385.15	
27975-19-5	Isosteviol	502.15	
2798-25-6	Bellidifolin	543.15	
27982-34-9	3-[[2-[2,4-Bis(1,1-dimethylpropyl)phenoxy]-1-oxobutyl]amino]-N-(2-methoxyphenyl)-β-oxobenzenepropanamide	378.15	
27985-87-1	Cyclohexyl-1,1′-biphenyl	348.65	
2799-07-7	S-Trityl-L-cysteine	455.15	
2799-19-1	Ethanol, 2-amino-, ethanedioate (2:1)	473.65	
2799-75-9	4H-1,3-Thiazin-2-amine, 5,6-dihydro-, hydrobromide (1:1)	417.65	
2799-91-9	Acetic acid, 2-(1-methyl-4-piperidinylidene)hydrazide	381.65	440.65
2799-92-0	Acetic acid, 2-(1-methyl-4-piperidinyl)hydrazide	375.15	
27992-31-0	5,6-Dimethyl-2(1H)-pyridinone	481.65	
27992-32-1	6-Bromo-2(1H)-pyridinone	396.15	
27996-87-8	2-Fluoro-5-nitrobenzaldehyde	331.65	
27998-60-3	[(2-Chloroethyl)sulfinyl]benzene	304.65	
280-33-1	Bicyclo[2.2.2]octane	442.65	
280-38-6	2-Azabicyclo[2.2.2]octane	447.15	
280-57-9	Dabco	431.15	447.15
280-64-8	9-Borabicyclo[3.3.1]nonane	414.15	
2800-80-8	Bromophenol red	503.15	
2800-96-6	Tin tetraacetate	505.65	
28003-86-3	L-Lysine orotate	538.15	
28004-59-3	5-(3,4,5-Trimethoxyphenyl)-1,3,4-thiadiazol-2-amine	396.15	
2801-04-9	Carbamodithioic acid, N,N-bis(2-hydroxyethyl)-, sodium salt (1:1)	428.15	
2801-21-0	2-Benzothiazolesulfenamide	400.65	
2801-29-8	4-Methyl-8-nitroquinoline	398.65	
2802-06-4	Glycine, N-(carboxymethyl)-, hydrochloride (1:1)	528.15	
2802-11-1	Pregn-4-ene-3,20-dione, 21-(acetyloxy)-6-fluoro-11-hydroxy-16,17-[(1-methylethylidene)bis(oxy)]-, (6α,11β,16α)-	535.15	
28024-60-4	α-Amino-1H-pyrazole-1-propanoic acid	519.15	
28026-77-9	N-(3-Ethyl-4-hydroxyphenyl)acetamide	413.65	
28034-99-3	4′-Chloro-4-biphenylol	419.65	
2804-50-4	2-Chloro-1,1,3,3,3-pentafluoropropene	143.15	279.95
28042-61-7	Magnesium potassium fluoride (MgKF3)	1345.15	
28047-15-6	Phenylacetylglutamine	373.15	
28052-84-8	5-Methoxy-DL-tryptophan	512.15	
28056-54-4	2,2,4-Trimethylcyclopentanone	232.55	431.15
28056-87-3	2-Ethyl-N,N-dimethyl-1-hexanamine	330.4	
28059-64-5	2-Benzylaniline	325.15	
2806-85-1	3-Ethoxypropanal	332.4	406.15
28061-21-4	(Chloromethyl)dodecylbenzene		453.15
2807-09-2	(3E)-3-Hexen-1-yne		346.15
2807-30-9	Glycol monopropyl ether	183.15	424.15
280744-09-4	3-(2,4-Dichlorophenyl)-4-(1-methyl-1H-indol-3-yl)-1H-pyrrole-2,5-dione	376.15	
2808-46-0	5,8-Dihydroxy-2,7-dimethoxy-1,4-naphthalenedione	508.65	
2808-86-8	2,3,4,5-Tetrachloropyridine	294.15	
28084-19-7	Nonyl stearate	319.65	
28086-13-7	[2-(Hydroxy-κO)benzoato-κO]phenylmercury	433.65	
28087-79-8	Benzoic acid, 4-hydroxy-, polymer with formaldehyde	394.65	
2809-21-4	(1-Hydroxyethylidene)-1,1-diphosphonic acid	428.15	
2809-67-8	2-Octyne	211.55	410.75
2809-69-0	2,4-Hexadiyne	340.95	402.65
2809-78-1	1-Ethynylcycloheptanol	286.9	
28092-52-6	(3aS,6aR)-Tetrahydro-1,3-bis(phenylmethyl)-1H-thieno[3,4-d]imidazole-2,4-dione	398.65	
28092-62-8	(3aS,6aR)-1,3-Dibenzyldihydro-1H-furo[3,4-d]imidazole-2,4-dione	391.15	
281-23-2	Adamantane	478.15	
281-24-3	2-Oxatricyclo[3.3.1.13,7]decane	498.15	
2810-04-0	Ethyl 2-thiophenecarboxylate		491.15
28108-99-8	Isopropylphenyl diphenyl phosphate		498.15
28115-25-5	Tetrahydro-3a,6a-dimethylimidazo[4,5-d]imidazole-2,5(1H,3H)-dione	618.15	
28118-15-2	Benzoxazolium, 3-ethyl-2-[2-[(3-ethyl-5-phenyl-2(3H)-benzoxazolylidene)methyl]-1-buten-1-yl]-5-phenyl-, bromide (1:1)	531.15	
2812-09-1	2,3-Dihydro-5,7-dimethoxy-8-methyl-2-phenyl-4H-1-benzopyran-4-one	414.65	
2812-73-9	O-Ethyl carbonochloridothioate		400.65
28120-03-8	Tymazoline hydrochloride	489.15	
28122-76-1	Ethanethioic acid, S-(4-bromophenyl) ester	324.65	
28122-80-7	Benzenecarbothioic acid, S-(4-bromophenyl) ester	356.15	
28122-82-9	S-Phenyl 4-chlorobenzenecarbothioate	355.4	
28122-95-4	2-Thiophenecarbothioic acid, S-phenyl ester	321.65	
28124-29-0	1,7-Diaminophenazine	401.15	
28128-19-0	3,9-Dihydro-2H-purine-2-thione	523.15	
2813-95-8	Dinoseb acetate	299.15	
28132-03-8	1,5-Dimethyl 1,2,4,5-benzenetetracarboxylate	465.15	
2814-20-2	2-Isopropyl-6-methyl-4-pyrimidinol	444.15	
2814-33-7	3-(2-Phenylethyl)-3H-imidazo[4,5-b]pyridine-6-carboxylic acid	496.65	
28140-60-5	Benzenamine, N-[3-(phenylamino)-2-propen-1-ylidene]-, hydrochloride (1:1)	483.15	
28145-10-0	N-Ethyl-N′-methylurea	325.65	
28149-15-7	2-Nitro-9H-fluoren-9-ol	500.15	
2815-95-4	1,3-Benzodioxole-5-propanoic acid	356.15	
28150-30-3	2-[[4-(Phenylmethoxy)phenoxy]methyl]oxirane	337.65	
28152-73-0	(+)-Vincaminic acid	535.65	
2816-12-8	DL-Valine N-carboxy anhydride	352.15	
2816-24-2	2-Nitrophenyl β-D-glucopyranoside	413.65	
2816-43-5	Triphenylgermane	315.15	
2816-57-1	2,6-Dimethylcyclohexanone	444.15	448.15
28162-32-5	2-(2-Thienylmethylene)propanedinitrile	359.15	
28164-57-0	Diospyrin	559.95	
28164-88-7	(2S,3aR,3bS,3cS,4aR,5S,5aS,8aR,8bR,9R,10aR)-3a,3b,3c,4a,5,5a,8a,9,10,10a-Decahydro-5,5a-dihydroxy-4a-(hydroxymethyl)-7,9-dimethyl-10a-(1-methylethenyl)-2-phenyl-6H-2,8b-epoxyoxireno[6,7]azuleno[5,4-e]-1,3-benzodioxol-6-one	468.15	
28165-72-2	2,6-Dibromophenyl acetate	320.35	
28166-06-5	1-Fluoro-2-nitro-4-azidobenzene	327.65	
28166-41-8	α-Cyano-4-hydroxycinnamic acid	517.15	
28169-46-2	2-Methyl-3,5-dinitrobenzoic acid	478.65	
2817-13-2	N-[(Phenylmethoxy)carbonyl]-L-leucyl-L-alanine	425.65	
28177-48-2	2,6-Difluorophenol	312.65	333.15
2818-58-8	Phenyl β-D-galactopyranoside	427.15	
2818-66-8	5-Amino-2-mercaptobenzimidazole	553.15	
2818-69-1	5-Chloro-2-methylbenzimidazole	489.65	
2818-76-0	5-Chloro-1-ethyl-2-methyl-1H-benzimidazole	358.15	
2818-88-4	2-Methylbenzoselenazole	305.65	
28188-41-2	3-Cyanobenzyl bromide	366.15	
2819-05-8	2-(1,1-Dimethylethyl)-1,3-propanediol	333.15	
2819-56-9	2-Oxo-1-oxaspiro[4.5]decane-4-carboxylic acid	457.65	
2819-86-5	2,3,4,5,6-Pentamethylphenol	401.15	540.15
28197-66-2	N-[3-Acetyl-4-(2-oxiranylmethoxy)phenyl]butanamide	400.15	
2820-37-3	3,4-Dimethylpyrazole	329.15	
28205-74-5	1,4-Butanediol-sebacic acid-terephthalic acid copolymer	427.65	
28211-04-3	ε-Poly-L-lysine	445.15	
28212-40-0	Poly[oxy(methyl-1,2-ethanediyl)], α-phenyl-ω-hydroxy-	423.65	
28217-97-2	N-(2-Methyl-4-chlorophenyl)-N′,N′-dimethylthiourea	448.15	
28225-88-9	2,4-Dichloro-5-methylbenzenethiol	358.15	
2823-42-9	(6α,11β,16α)-21-(Acetyloxy)-6,9-difluoro-11,17-dihydroxy-16-methylpregna-1,4-diene-3,20-dione	535.15	
28230-32-2	3,4-Dihydro-3-hydroxy-4-oxo-1,2,3-benzotriazine	459.65	
28231-03-0	Cedrenol	376.65	
28232-53-3	3-(4-Nitrophenoxy)pyridine	382.15	
28237-14-1	(±)-9,10-Dihydro-2-methyl-4H-benzo[5,6]cyclohept[1,2-d]oxazol-4-ol	407.65	
28249-77-6	Thiobencarb	276.45	
2825-00-5	Aureothin	430.65	
2825-15-2	1-Nitro-2,4-imidazolidinedione	443.15	
2825-28-7	Butanamide, 3-thioxo-, hydrochloride (1:1)	382.15	
2825-60-7	Formocortal	454.15	
2825-82-3	exo-Tetrahydrodicyclopentadiene		458.15
2825-83-4	endo-Tetrahydrodicyclopentadiene	350.15	462.15
28259-91-8	Hexanedioic acid, polymer with 2,2-bis(hydroxymethyl)-1,3-propanediol	433.15	
2826-28-0	Dimethylaminobenzylidenemalononitrile	452.65	
2826-30-4	(2-Nitrobenzylidene)malononitrile	412.15	
2826-32-6	3-Nitrobenzylidenemalononitrile	379.95	
2826-80-4	N-[(7S)-5,6,7,9-Tetrahydro-1,2,3-trimethoxy-10-(methylamino)-9-oxobenzo[a]heptalen-7-yl]acetamide	396.65	
2826-95-1	1H-Indole-3-ethanamine, 2-methyl-, hydrochloride (1:1)	466.65	
28260-61-9	Trinitrochlorobenzene	465.65	
2827-42-1	6-(4-Morpholinyl)-1,3,5-triazine-2,4-diamine	524.35	
2827-45-4	2,4-Diamino-6-methoxy-1,3,5-triazine	502.65	
2827-46-5	2,4,6-Trimethylmelamine	388.15	
2827-47-6	2-Amino-4,6-bis(dimethylamino)-1,3,5-triazine	346.65	
2827-49-8	N2,N2,N4,N4,N6,N6-Hexaethyl-1,3,5-triazine-2,4,6-triamine	319.65	
2827-56-7	1-Aminohydantoin hydrochloride	475.65	
28272-18-6	(1aR,4E,6R,6aR,9aS,10aR)-6-(Acetyloxy)-1a,3,6,6a,7,9a,10,10a-octahydro-4,10a-dimethyl-7-methyleneoxireno[8,9]cyclodeca[1,2-b]furan-8(2H)-one	473.15	
28274-57-9	Methylseleninic acid	404.15	
28279-12-1	2-Methylpyrido[2,3-d]pyrimidin-4(3H)-one	531.15	
28279-36-9	1-(2,4,6-Trichlorophenyl)-3-[3′-(2,4-di-tert-amylphenoxyacetamido)benzamido]-4-(4-methoxyphenylazo)-5-pyrazolone	433.65	
2828-42-4	2-Propanone O-[(phenylamino)carbonyl]oxime	381.15	
28281-49-4	3′,4′-(Methylenedioxy)propiophenone	396.15	401.15
28284-05-1	N-Benzoylisatin	432.15	
28286-86-4	2,4-Dichloro-5-methylbenzenesulfonyl chloride	344.15	
28286-88-6	4-Dicyanomethylene-2,6-dimethyl-4H-pyran	471.65	
28289-54-5	1-Methyl-4-phenyl-1,2,3,6-tetrahydropyridine	314.15	
2829-84-7	Phenol, 4-[2-hydroxy-3-[(1-methylethyl)amino]propoxy]-, hydrochloride (1:1)	440.65	
2829-92-7	Phenol, 2-[2-hydroxy-3-[(1-methylethyl)amino]propoxy]-, hydrochloride (1:1)	400.15	
28292-43-5	1,4-Dimethylpentylamine		405.15
28294-55-5	2,5-Bis[(3-chlorophenyl)amino]-1,4-benzenedicarboxylic acid	610.15	
28294-58-8	5-Hexadecyl-2-hydroxybenzoic acid	364.95	
283-24-9	3-Azabicyclo[3.2.2]nonane	465.65	
283-47-6	1,5-Diazabicyclo[3.2.2]nonane	363.65	469.15
283-56-7	Triethanolamine borate	519.15	
283-58-9	1,5-Diazabicyclo[3.3.3]undecane	406.65	
28302-70-7	Pentafluoropropanol		354.15
2831-60-9	2-(2,4-Dinitrophenoxy)ethanol	382.15	
28311-31-1	Benzenepropanoic acid, β-(aminomethyl)-4-chloro-, hydrochloride (1:1)	453.15	
28314-80-9	2,4,6-Trifluorobenzoic acid	416.15	
28315-93-7	5-Hydroxy-1-tetralone	483.9	
28319-77-9	sn-glycero-3-Phosphocholine	415.65	
2832-19-1	N-Methylol-α-chloroacetamide	375.15	
2832-30-6	1,4-Dichloro-5,8-dihydroxy-9,10-anthracenedione	539.15	
2832-40-8	Disperse Yellow 3	468.15	
28321-79-1	2,3-Diiminobutanedinitrile	438.65	
28322-02-3	4-Acetylaminofluorene	472.65	
28322-40-9	Phosphonium, (3-methylbutyl)triphenyl-, bromide (1:1)	425.65	
28334-99-8	3,5-Dipropoxyphenol	320.9	
2834-05-1	11-Bromoundecanoic acid	330.15	
2834-10-8	(2-Methoxybenzylidene)malononitrile	357.65	
2834-79-9	4-[1,1′-Biphenyl]-4-yl-2-thiazolamine	480.65	
2834-92-6	1-Amino-2-naphthol	476.4	
28342-33-8	Oxychelerythrine	468.65	
28343-61-5	4-Hydroxy-2,5,6-trichloroisophthalonitrile	536.15	
28347-13-9	Bis(chloromethyl)benzene	308.65	525.65
2835-06-5	DL-Phenylglycine	563.15	
2835-21-4	1-Propene, 3-isocyano-		363.15
2835-39-4	Allyl isovalerate		362.65
2835-58-7	2-(2-Phenyldiazenyl)benzenamine	332.15	
2835-61-2	4-[2-(1-Naphthalenyl)diazenyl]-1-naphthalenamine	447.15	
2835-68-9	4-Aminobenzamide	455.15	
2835-77-0	2-Aminobenzophenone	383.65	
2835-78-1	3-Aminobenzophenone	359.15	
2835-81-6	α-Aminobutyric acid	578.15	
2835-95-2	5-Amino-2-methylphenol	434.15	
2835-96-3	4-Amino-2-methylphenol	449.65	
2835-97-4	2-Amino-3-methylphenol	431.15	
2835-98-5	2-Amino-5-methylphenol	435.15	
2835-99-6	4-Amino-3-methylphenol	447.65	
28356-58-3	4-Pyridineacetic acid	414.15	
2836-00-2	3-Amino-4-methylphenol	430.95	
2836-03-5	N1,N1-Dimethyl-1,2-benzenediamine		491.15
2836-04-6	N,N-Dimethyl-m-phenylenediamine		543.15
2836-32-0	Sodium glycolate	424.15	
28361-43-5	1,1′-Sulfonylbis[3,4-dimethylbenzene]	435.15	
2837-61-8	2,2-Dichloro-N-[3-(trifluoromethyl)phenyl]acetamide	354.15	
2837-89-0	HCFC 124	74.15	261.15
28377-44-8	2-Propenoic acid, 2-methyl-, polymer with ethenylbenzene, 2-ethylhexyl 2-propenoate and methyl 2-methyl-2-propenoate	409.15	
28380-24-7	Nigericin	457.15	
2839-37-4	1,2,5-Tribromo-3-fluorobenzene	314.15	
28395-03-1	Bumetanide	503.65	
2840-00-8	3,5-Dichloro-2,6-difluoro-4-pyridinamine	385.65	385.65
2840-11-1	2,3-Butanedione, 1-chloro-, 3-oxime	391.15	
2840-24-6	Trimethylammonium bromide	517.15	
2840-28-0	3-Amino-4-chlorobenzoic acid	487.15	
28408-65-3	Poly(N-vinylacetamide)	648.15	
28416-66-2	Benzeneacetonitrile, α-[2-(dimethylamino)propyl]-α-(1-methylethyl)-, 2-hydroxy-1,2,3-propanetricarboxylate (1:1)	336.65	
28419-86-5	2-Ethyl-4-methyl-2-pentenal		447.15
2842-11-7	2,2-Dichloro-N-(4-methylphenyl)acetamide	411.15	
2842-37-7	2-[(2-Phenylethyl)amino]ethanol		541.15
2842-38-8	2-(Cyclohexylamino)ethanol	313.65	
28434-01-7	Bioresmethrin	305.65	
28442-78-6	2-Chloro-1,3-benzenedicarbonitrile	428.15	
28443-50-7	2-Amino-5-chlorophenol	426.65	
28446-68-6	4-Methoxycinnamonitrile	334.65	
28446-70-0	3-(4-Methylphenyl)-2-propenenitrile	343.65	
28446-72-2	3-(4-Chlorophenyl)-2-propenenitrile	358.65	