CAS	name	Tm	Tb
299-39-8	7,14-Methano-2H,6H-dipyrido[1,2-a:1′,2′-e][1,5]diazocine, dodecahydro-, (7S,7aR,14S,14aS)-, sulfate (1:1)	422.15	
299-42-3	Ephedrine	307.15	528.15
299-45-6	O,O-Diethyl O-(4-methyl-2-oxo-2H-1-benzopyran-7-yl) phosphorothioate	311.15	483.15
299-75-2	Treosulfan	350.15	
299-78-5	2-(1-Methylethyl)-4-pentenamide	372.15	
299-84-3	Fenchlorphos	314.15	
299-85-4	Zytron	324.55	
299-86-5	Crufomate	333.4	
299-88-7	Dibenzoylthiamine	445.15	
299-95-6	Isoproterenol sulfate	453.15	
2990-17-2	bromo-DDT	417.15	
29900-93-4	(1R)-3-endo-Aminoborneol	444.15	
29903-04-6	Peroxide, bis(1-naphthalenylcarbonyl)	371.15	
29908-97-2	1,3-Propanediol, 2,2-bis[[3-(nitrooxy)-2,2-bis[(nitrooxy)methyl]propoxy]methyl]-, 1,1′,3,3′-tetranitrate	356.15	
2991-28-8	2,5-Difluorobenzoic acid	406.15	
2991-42-6	4-(Trifluoromethyl)benzenesulfonyl chloride	305.15	
29911-28-2	1-(1-Butoxy-2-propoxy)-2-propanol		376.15
29917-12-2	2,3,4-Pentanetrione, 3-oxime	345.65	
29922-56-3	3-Bromo-4-hydroxybenzenemethanol	401.15	
2993-22-8	(OC-6-21)-(3-Aminophenyl)pentafluorosulfur	310.15	
29939-34-2	4,6-Dimethoxy-2-methyl-5-nitropyrimidine	389.65	
29943-42-8	Tetrahydro-4H-pyran-4-one		439.65
29949-19-7	Methanediol, 1-(3-nitrophenyl)-, 1,1-diacetate	345.15	
29949-85-7	Tris(3-chlorophenyl)phosphine	340.15	
29953-71-7	trans-3-Indoleacrylic acid	468.65	
2996-92-1	Trimethoxyphenylsilane	248.15	484.15
2996-95-4	Pentyltrimethoxysilane		455.05
29968-78-3	Benzeneethanamine, 4-nitro-, hydrochloride (1:1)	482.65	
2997-92-4	2,2-Azobis(2-amidinopropane) dihydrochloride	440.65	
29973-13-5	Ethiofencarb	306.55	
29975-16-4	Estazolam	501.65	
2998-04-1	1,6-Di-2-propen-1-yl hexanedioate		398.65
2998-08-5	sec-Butyl acrylate		404.9
2998-56-3	N,N-Bis(2-chloroethyl)carbamic chloride	375.15	
2998-57-4	Estramustine	377.65	
29996-45-0	Cyclododecanediol	369.05	
300-08-3	Arecoline hydrobromide	443.15	
300-30-1	(±)-Thyroxine	484.15	
300-38-9	3,5-Dibromo-L-tyrosine	518.15	
300-39-0	3′,5′-Diiodo-L-tyrosine	461.15	
300-42-5	Benzeneethanamine, N,α-dimethyl-, hydrochloride (1:1)	407.15	
300-57-2	Allylbenzene	233.15	429.15
300-62-9	Amphetamine	419.15	474.65
300-76-5	Naled	300.15	
300-82-3	1,7-Heptanediaminium, N1,N1,N1,N7,N7,N7-hexamethyl-, iodide (1:2)	511.65	
300-84-5	Hypotaurine	449.15	
300-85-6	3-Hydroxybutyric acid	319.15	
300-87-8	3,5-Dimethylisoxazole	417.15	416.15
300-92-5	Aluminum distearate	418.15	
30000-36-3	Isoline (alkaloid)	450.4	
30003-49-7	Guanidine, N-[5-[19-(α-D-arabinofuranosyloxy)-35-butyl-10,12,14,16,18,22,26,30,34-nonahydroxy-3,5,21,33-tetramethyl-36-oxooxacyclohexatriaconta-4,20-dien-2-yl]-4-hydroxyhexyl]-, sulfate (2:1)	450.65	
30006-30-5	Benzoic acid, 2-[(1-oxobutyl)amino]-, methyl ester	344.15	
30007-47-7	5-Bromo-5-nitro-1,3-dioxane	332.15	
3001-15-8	4,4′-Diiodo-1,1′-biphenyl	475.15	
3001-57-8	Thiophene, 3,4-dichlorotetrahydro-, 1,1-dioxide	399.15	459.15
3001-66-9	2-Octanethiol		337.15
3001-98-7	2,4,8,10-Tetraoxa-3,9-diphosphaspiro[5.5]undecane, 3,9-dimethyl-, 3,9-dioxide	391.15	
3002-18-4	Ethanol, 2,2′,2′′-nitrilotris-, 1,1′,1′′-triacetate	443.15	
3002-24-2	2,4-Hexanedione	470.65	433.15
3002-78-6	5-Methyl-1,10-phenanthroline	386.15	
3002-81-1	5,6-Dimethyl-1,10-phenanthroline	538.65	
3003-84-7	2-(Chloromethyl)tetrahydrofuran		423.65
30031-64-2	(S,S)-2,2′-Bioxirane	277.15	417.15
3004-42-0	5-Phenyl-1,3,4-oxadiazole-2-thiol	492.65	
3004-51-1	2-Propen-1-aminium, N,N,N-trimethyl-, bromide (1:1)	441.65	
3004-71-5	6-Chloro-N2-methyl-N4-(1-methylethyl)-1,3,5-triazine-2,4-diamine	432.15	
3004-93-1	2-Methyloctanoic acid		388.15
30042-37-6	Lankamycin	421.65	
30043-49-3	Ethidimuron	429.15	
30043-55-1	Buthiuron	396.65	
30044-61-2	N-[(1,1-Dimethylethoxy)carbonyl]-3-[(1,1-dimethylethyl)dithio]-L-alanine	384.15	
30045-16-0	Dehydrocorydaline	444.65	
3005-27-4	Dibromo-N-methylmaleimide	393.15	
30051-58-2	(T-4)-Bis(N,N-dimethylcarbamodithioato-κS,κS′)tin	518.15	
3006-93-7	m-Phenylenebismaleimide	471.65	
3006-96-0	4-(Hydroxymethyl)benzoic acid	454.65	418.15
30064-28-9	3,4,5-Trichloro-1,2-benzenediamine	384.15	
3007-19-0	1,1′-[4-(1,1-Dimethylethyl)cyclohexylidene]bis[2-(1,1-dimethylethyl) peroxide]	323.15	
3007-31-6	Didodecylamine	331.15	453.15
3007-74-7	N-Dodecylbenzenamine	298.9	
3007-91-8	2-Naphthalenecarboxylic acid, ethyl ester	305.15	581.65
3007-97-4	Ethyl 1-naphthalenecarboxylate		583.15
30071-93-3	Bis (trifluoromethyl)acetophenone		461.15
30077-81-7	3,4,5-Trimethoxy-α-(4-morpholinylmethylene)benzenepropanenitrile	379.15	
3008-39-7	1,2-Cycloheptanedione	233.15	381.15
3008-42-2	4-Methyl-1,2-cyclohexanedione	308.65	
3008-43-3	3-Methyl-1,2-cyclohexanedione	335.15	
300816-22-2	4-Chloro-6,7-dihydro-5H-cyclopenta[4,5]thieno[2,3-d]pyrimidine	403.15	
30084-90-3	Fluorene-2-carboxaldehyde	447.65	636.95
30084-91-4	2,3-Dihydro-1H-indene-5-carboxaldehyde	529.15	
30086-64-7	Octahydro-2H-benzimidazole-2-thione	424.65	
30087-33-3	α-Methyl-9-oxo-9H-xanthene-2-acetic acid	442.65	
3009-04-9	N-Butyl-3-chloro-2-hydroxybenzamide	997.15	
3009-50-5	4-[2-(4-Methoxyphenyl)diazenyl]-N,N-dimethylbenzenamine	435.15	
3009-97-0	2-(Phenylamino)acetonitrile	320.15	
30090-17-6	4-(2-Methylpropyl)benzenamine		511.15
30091-01-1	5-Methyl-2,4-bis(phenylmethyl)phenol	379.65	
30091-02-2	3-Methyl-4-(phenylmethyl)phenol	366.65	
30095-79-5	Ethyl 6-nitro-4-oxo-4H-1-benzopyran-2-carboxylate	451.65	
30097-06-4	2,4-Thiazolidinedicarboxylic acid	457.65	
301-00-8	Methyl linolenate	216.15	455.15
301-02-0	Oleamide	349.15	
301-04-2	Lead diacetate	553.15	2013.15
301-10-0	Stannous octoate	307.15	
301-11-1	2-Thiocyanatoethyl laurate		448.15
301-19-9	Robinin	523.15	
301-21-3	Laudanidine	457.65	
3010-02-4	2-(Diethylamino)acetonitrile		443.15
3010-03-5	1-Piperidineacetonitrile	292.15	
3010-23-9	2-Heptadecyl-4,5-dihydro-1H-imidazole-1-ethanamine	342.65	
3010-24-0	Bis(2-hydroxyethyl)methyloctadecylammonium chloride	358.15	531.15
3010-38-6	N,N-Dimethyl-4-[2-(2-nitrophenyl)diazenyl]benzenamine	437.15	
3010-57-9	N,N-Dimethyl-4-[2-(4-methylphenyl)diazenyl]benzenamine	424.65	
3010-80-8	Tris(4-chlorophenyl)methanol	371.15	
3010-81-9	4-Methoxy-α,α-bis(4-methoxyphenyl)benzenemethanol	355.15	
3010-82-0	Terephthalamide	473.15	
3010-96-6	Tetramethyl-1,3-cyclobutanediol	406.15	
30100-35-7	2-(4-Methoxyphenyl)-2,5-cyclohexadiene-1,4-dione	383.15	
3011-34-5	4-Hydroxy-3-nitrobenzaldehyde	414.15	
3011-82-3	Dioctylphosphine oxide	356.15	
3011-89-0	Aklomide	445.15	
3012-37-1	Tropeolin	316.15	505.15
3012-69-9	9,10:12,13-Diepoxyoctadecanoic acid	348.65	
3012-80-4	1-Methyl-2-formylbenzimidazole	394.15	
30123-17-2	Tianeptine sodium	453.15	
3015-65-4	N,N-Dimethyltetradecanamide	302.15	
3016-19-1	trans-Alloocimene	237.75	461.15
3016-76-0	4,4′-[2,2,2-Trifluoro-1-(trifluoromethyl)ethylidene]bis[1,2-benzenedicarboxylic acid]	498.15	
3016-97-5	1,4-Dibenzoylbenzene	433.65	
30162-37-9	N-3-Pyridinylthiourea	439.15	
30165-96-9	3-Chloro-4-morpholino-1,2,5-thiadiazole	317.15	
3017-68-3	2-Butene, 2-bromo-, (2Z)-	162	367.05
3017-95-6	2-Bromo-1-chloropropane		391.15
3017-96-7	Propane, 1-bromo-2-chloro-		391.15
3018-12-0	Dichloroacetonitrile		385.65
30187-90-7	Xibenolol	330.15	
3019-20-3	[(1-Methylethyl)thio]benzene		481.15
3019-25-8	Cyclobutyl methyl ketone		411.15
3019-71-4	Trichloroacetyl isocyanate	410.65	
3019-74-7	D-Sedoheptulose	522.15	
3019-89-4	Phenol, 3-methyl-, sodium salt (1:1)	366.15	
30195-30-3	7-Chloro-1,3-dihydro-5-(1H-pyrrol-2-yl)-2H-1,4-benzodiazepin-2-one	535.65	
302-01-2	Hydrazine	275.15	386.65
302-04-5	Thiocyanate	441.65	
302-15-8	Hydrazine, methyl-, sulfate (1:1)	413.65	
302-17-0	Chloral hydrate	330.15	371.15
302-22-7	Chlormadinone acetate	486.15	
302-23-8	Progesterone acetate	516.9	
302-27-2	Aconitine	477.15	
302-40-9	Benactyzine	324.15	
302-41-0	Piritramide	422.65	
302-49-8	Uredepa	362.15	
302-57-8	Triethylmethylammonium	542.65	
302-66-9	1-Pentyn-3-ol, 3-methyl-, 3-carbamate	328.95	
302-70-5	Mechlorethamine oxide hydrochloride	382.65	
302-72-7	Alanine	573.15	
302-76-1	(17β)-17-Methylestra-1,3,5(10)-triene-3,17-diol	468.65	
302-79-4	Retinoic acid	454.15	
302-84-1	DL-Serine	519.15	
302-91-0	5α-Tetrahydrocortisol	517.65	
302-97-6	(17β)-3-Oxoandrost-4-ene-17-carboxylic acid	533.15	
3020-06-2	3,4-Dimethylbenzeneacetonitrile	309.65	
3020-81-3	Butanimidamide, hydrochloride (1:1)	380.65	
3021-21-4	Inosine, 6-thio-, 2′,3′,5′-triacetate	488.15	
3022-16-0	Bis(chloromethyl)durene	466.65	
3023-92-5	Bromotricyclohexylstannane	350.15	
30236-29-4	α-D-Glucopyranoside, 1,3,4,6-tetra-O-nitro-β-D-fructofuranosyl, 2,3,4,6-tetranitrate	353.15	
30237-07-1	2-(4-Methylphenyl)-1,4-benzoquinone	411.65	
30237-26-4	(±)-Fructose	402.65	
3024-56-4	3-Ethyl-5-[2-(3-ethyl-2(3H)-benzothiazolylidene)-1-methylethylidene]-2-thioxo-4-oxazolidinone	478.15	
3024-72-4	3,4-Dichlorobenzoyl chloride	298.15	515.15
30241-86-2	N-(Aminocarbonyl)-4-bromobenzeneacetamide	499.65	
30249-25-3	N-(3-Methylbutyl)cyclohexanamine		478.15
3025-52-3	N,N-Diethyl-4-[2-(4-nitrophenyl)diazenyl]benzenamine	425.15	
3025-77-2	Solvent Red 5	523.15	
3025-88-5	2,5-Dimethylhexane-2,5-dihydroperoxide	378.15	
3025-95-4	Acetyl-β-alanine	351.15	
3025-96-5	4-Acetamidobutyric acid	400.15	
3026-66-2	Pyridinium, 1-dodecyl-, iodide (1:1)	361.65	
3026-69-5	Dioctyldimethylammonium bromide	337.15	
30263-65-1	1,1-Dibromo-3,3-dimethyl-2-butanone	345.15	
3027-13-2	3′-Methoxyphenyl-2-propanone		532.15
3027-21-2	(Dimethoxymethylsilyl)benzene	347.15	472.65
3027-38-1	5-Nitro-1H,3H-naphtho[1,8-cd]pyran-1,3-dione	520.65	
30272-08-3	Amineptine hydrochloride	501.15	
30273-11-1	4-(1-Methylpropyl)benzenamine		511.15
30273-42-8	4-Bromo-2-chloro-6-methylbenzenamine	333.15	
30279-49-3	3-Chloro-4-(2,5-dioxo-3-phenyl-1-pyrrolidinyl)benzenesulfonamide	479.15	
30286-75-0	Oxitropium bromide	476.65	
3029-19-4	1-Pyrenecarboxaldehyde	399.15	
3029-30-9	1,4-Naphthalenedicarbonitrile	479.15	
3029-40-1	1,1′-(1,3,5,7-Octatetraene-1,8-diyl)bis[benzene]	397.15	
3029-79-6	3-(3-Methylphenyl)-2-propenoic acid	387.65	
30291-41-9	4-Methyl-2,5-oxazolidinedione	323.15	
30299-08-2	Clinofibrate	417.65	
303-04-8	2,3-Dichloro-1,1,1,4,4,4-hexafluoro-2-butene	205.85	341.65
303-07-1	2,6-Dihydroxybenzoic acid	438.15	
303-08-2	2-(4-Methyl-2,5-dioxo-3-pyrrolidinyl)-1H-isoindole-1,3(2H)-dione	502.65	
303-16-2	2-(2,5-Dioxo-3-pyrrolidinyl)-1H-isoindole-1,3(2H)-dione	488.65	
303-25-3	Cyclizine hydrochloride	532.15	
303-26-4	Norchlorcyclizine	337.15	
303-31-1	2-(2,6-Dioxo-4-piperidinyl)-1H-isoindole-1,3(2H)-dione	515.65	
303-33-3	(+)-Heliotrine	398.65	
303-34-4	(-)-Lasiocarpine	369.85	
303-38-8	2,3-Dihydroxybenzoic acid	477.15	
303-40-2	Fluocortolone caproate	516.65	
303-42-4	Methenolone enanthate	343.4	
303-43-5	Cholesteryl oleate	319.65	
303-45-7	Gossypol	472.15	
303-49-1	Clomipramine	462.65	438.15
303-53-7	Cyclobenzaprine		450.65
303-54-8	Depramine	329.65	
303-69-5	Prothipendyl		491.15
303-81-1	Novobiocin	426.15	
303-95-7	Coenzyme Q7	300.65	
303-97-9	Ubiquinone 9	318.15	
303-98-0	Coenzyme Q10	322.15	
3030-06-6	1-Acetyl-5-bromo-4-chloro-1H-indol-3-yl acetate	434.65	
3030-47-5	Pentamethyldiethylenetriamine	435.65	
3030-97-5	Salicylaldehyde, semicarbazone	500.65	
30306-93-5	Monoethyl citrate	375.9	
3031-05-8	1,2,6-Trimethylnaphthalene	287.15	419.15
3031-21-8	Thioperoxydiphosphoric acid ([(HO)2P(S)]2S2), OP,OP,OP′,OP′-tetrakis(1-methylethyl) ester	365.65	
3031-66-1	3-Hexyne-2,5-diol	342.65	
3031-68-3	2,4-Hexadiyne-1,6-diol	385.15	
3031-73-0	Methyl hydroperoxide		319.15
3031-74-1	Hydroperoxide, ethyl	173.15	368.15
3031-94-5	AICA Ribotide	473.15	
3031-98-9	Methyl L-xylo-2-hexulosonate	427.15	
30310-22-6	2-Bromo-4-methylpentane	178.55	342.05
30313-06-5	1,3-Diethyl 2-(2-thienylmethylene)propanedioate	341.65	
30315-46-9	(2S)-3-[(1,1-Dimethylethyl)amino]-1,2-propanediol	357.4	
30318-99-1	3-Bromo-4-methylthiophene		454.15
30319-05-2	3-Bromo-2-methylthiophene		449.15
3032-11-9	Ethanaminium, 2-ethoxy-N,N,N-trimethyl-2-oxo-, chloride (1:1)	439.65	
3032-81-3	1,3-Dichloro-5-iodobenzene	327.15	
3032-99-3	Mercury, dimethyl-μ-thioxodi-	416.15	
3033-73-6	Bis(2-chlorobenzoyl) peroxide	374.65	
3033-77-0	Glycidyltrimethylammonium chloride	411.15	
30334-71-5	1,2-Dipalmitoyl-sn-glycerol	337.65	
30335-72-9	5-Methoxy-2-nitrobenzofuran	404.15	
30339-87-8	2,3-Dihydrofluoranthene	335.15	
3034-19-3	(2-Nitrophenyl)hydrazine	363.15	
3034-34-2	4-Cyanobenzamide	497.15	
3034-38-6	5-Nitroimidazole	576.15	
3034-41-1	1-Methyl-4-nitroimidazole	409.65	
3034-42-2	1-Methyl-5-nitroimidazole	408.15	
3034-48-8	2-Bromo-5-nitrothiazole	364.15	
3034-50-2	Imidazole-4-carboxaldehyde	446.65	
3034-52-4	2-Chlorothiazole	358.15	
3034-53-5	2-Bromothiazole	312.65	444.15
3034-79-5	o-Methylbenzoyl peroxide	347.15	
3034-94-4	1-Ethynyl-3-nitrobenzene	300.15	
3034-97-7	Tetramethyl 1,2,3,5-benzenetetracarboxylate	402.9	
3035-94-7	4-[2-(4-Bromophenyl)diazenyl]phenol	429.15	
30354-18-8	Methanaminium, N-methyl-N-methylene-, chloride	415.65	
3036-16-6	Serotonin oxalate	469.15	
3036-66-6	1-Methoxy-1,3-butadiene		364.65
30361-33-2	(E,E)-2,4-Decadienoic acid	322.65	
30366-97-3	N-(3-Acetylphenyl)-3-hydroxy-2-naphthalenecarboxamide	468.65	
3037-89-6	Distearyl phosphate	348.15	
30370-87-7	Quercetin 3-arabinoside	489.65	
30377-62-9	N-Ethyl-2-nitro-4-(trifluoromethyl)benzenamine	332.65	
30379-55-6	Benzyloxyacetic acid	353.65	
3038-25-3	5-[4-(Diethylamino)phenyl]-5-ethyl-2,4,6(1H,3H,5H)-pyrimidinetrione	508.65	
3038-47-9	2-(Trifluoromethyl)benzeneacetonitrile	306.15	
3038-48-0	[2-(Trifluoromethyl)phenyl]acetic acid	374.15	
3038-49-1	4,5-Dihydro-2-[[2-(trifluoromethyl)phenyl]methyl]-1H-imidazole	361.15	
30388-44-4	N-Methyl-4-(methylsulfonyl)-2-nitrobenzenamine	466.65	
3039-74-5	4-Hydroxyquinoline 1-oxide	511.15	
30391-89-0	2-Amino-N-isopropylbenzamide	420.15	
30392-41-7	Bitolterol mesylate	444.15	
304-06-3	2-Hydroxy[1,1′-biphenyl]-3-carboxylic acid	457.65	
304-17-6	N-Isopropylphthalimide	359.15	
304-19-8	2-(2-Methylpropyl)-1H-isoindole-1,3(2H)-dione	366.15	
304-20-1	Hydralazine hydrochloride	546.15	
304-21-2	Harmaline	523.15	
304-28-9	N,N′-9H-Fluorene-2,7-diylbis[acetamide]	554.15	
304-43-8	Diphenicillin	450.65	
304-53-0	α,α-Dimethyl-1H-indole-3-ethanamine	403.65	
304-55-2	meso-2,3-Dimercaptosuccinic acid	466.15	
304-59-6	Potassium sodium tartrate	368.15	473.15
304-81-4	Phenazine N-oxide	499.15	
304-84-7	Ethamivan	368.15	
304-88-1	N-Benzoyl-N-phenylhydroxylamine	394.65	
304-91-6	2-Iodosylbenzoic acid	515.15	
3040-44-6	1-Piperidineethanol	291.05	475.15
30406-18-9	N-Hydroxyheptanamide	352.65	
3041-16-5	Dioxanone	299.85	486.15
3041-40-5	2-Phenylpropanedinitrile	341.15	
30419-67-1	(2R,2′R)-2,2′-Bioxirane		417.15
3042-21-5	2-Methyl-5-phenyl-1H-pyrrole	372.15	
3042-22-6	2-Phenylpyrrole	402.15	545.15
3042-69-1	1-Cyclohexylnaphthalene	304.15	392.15
3042-84-0	Brompyrazon	496.65	
30425-47-9	1-(4-Methoxyphenyl)-2-pyrrolidinone	386.15	
30427-16-8	2-(Dimethylamino)-4-methylphenol	345.15	
30429-79-9	(T-4)-Bis[N-[2-(mercapto-κS)phenyl]benzamidato-κO]zinc	444.15	
3043-83-2	1,5-Dihydro-7-methyl-2-(methylthio)-5-oxo[1,2,4]triazolo[1,5-a]pyrimidine-6-carboxylic acid	509.15	
30431-54-0	Bis(2,4,5-trichloro-6-carbopentoxyphenyl) oxalate	356.75	
30432-16-7	1,4-Dibromo-2,3-bis(bromomethyl)-2-butene	431.65	
30433-91-1	2-Thiopheneethanamine	475.15	
30434-64-1	3,4-Dimethyl-2-cyclopenten-1-one		340.65
3044-06-2	1,3-Diethyl 2-(1-ethoxyethylidene)propanedioate	299.65	
3044-42-6	(11β)-21-(Acetyloxy)-11-hydroxypregna-1,4,16-triene-3,20-dione	481.65	
3044-56-2	Ethyl (3,4,5-trimethoxybenzoyl)acetate	368.15	
30448-43-2	1,2-Bis(1,1-dimethylethyl) 1,2-benzenedicarboxylate	457.65	
30452-69-8	L-Cystine, S,S-dioxide	453.65	
30453-31-7	Ethyl propyl disulfide	156.11	391.65
30458-69-6	3-Methyl-3H-imidazo[4,5-b]pyridin-2-amine	493.65	
30460-92-5	Pinocarvone	495.65	
30461-65-5	(3aR,12cS)-3a,12c-Dihydro-6,8-dihydroxy-7H-furo[3′,2′:4,5]furo[2,3-c]xanthen-7-one	527.15	
3047-74-3	Phenylsilanetriol	403.15	
3048-64-4	5-Vinyl-2-norbornene		413.55
30484-77-6	Flunarizine hydrochloride	524.65	
3049-24-9	Diphenyl P-phenylphosphonate	347.6	
3049-31-8	Hydroquinone dimethacrylate	361.65	
3049-71-6	Pigment Red 178	551.65	
305-01-1	Esculetin	549.15	
305-03-3	Chlorambucil	338.15	
305-13-5	N,N-Diethyl-2-[2-methoxy-4-(2-propen-1-yl)phenoxy]acetamide		417.65
305-15-7	(2,5-Dichlorophenyl)hydrazine	528.15	
305-33-9	Iproniazid phosphate	452.65	
305-62-4	2,4-Diaminobutyric acid	417.15	
305-84-0	L-Carnosine	533.15	
305-85-1	2,6-Diiodo-4-nitrophenol	430.15	
3050-69-9	Vinyl hexanoate		439.15
30501-29-2	Tetrachlorotricyclo[8.2.2.24,7]hexadeca-4,6,10,12,13,15-hexaene	408.15	458.15
30507-16-5	3-(4-Methoxyphenyl)-2-methyl-4(3H)-quinazolinone	443.15	
3051-27-2	1-(2-Thienyl)-1,3-butanedione	307.15	
3051-84-1	Adenylyl-(3′→5′)-uridine	483.15	
3051-89-6	Methyl 2,3-di-O-methyl-4,6-O-(phenylmethylene)-α-D-glucopyranoside	395.65	
3051-94-3	3,4-Dimethylphenyl-N-D-ribitylamine	416.15	
30515-28-7	7-Bromoheptanoic acid	304.15	553.15
30516-87-1	Azidothymidine	382.15	
30517-66-9	(3aR,12cS)-1,2,3a,12c-Tetrahydro-6,8-dihydroxy-7H-furo[3′,2′:4,5]furo[2,3-c]xanthen-7-one	476.15	
3052-50-4	Monomethyl maleate	366.15	
30525-89-4	Paraformaldehyde	437.15	
30525-99-6	2-Propenoic acid, 2-methyl-, tetradecyl ester, homopolymer	266.15	
30529-70-5	2-Chloro-6-methylnicotinic acid	434.15	
3054-01-1	S-Benzyl-L-cysteine	488.65	
3054-92-0	2,3,4-Trimethyl-3-pentanol		429.65
3054-95-3	3,3-Diethoxy-1-propene	395.15	396.65
30540-31-9	1-Bromo-2,3-dimethylbutane		413.15
30541-56-1	Adamantylideneadamantane	458.15	
30544-47-9	Etofenamate		405.65
30544-61-7	Clanobutin	388.65	
3055-86-5	3-Phenoxypropanenitrile	336.65	
3055-93-4	Diethylene glycol monododecyl ether	289.05	
3055-94-5	Triethylene glycol monododecyl ether	289.9	
3055-95-6	3,6,9,12,15-Pentaoxaheptacosan-1-ol	287.9	
3055-96-7	3,6,9,12,15,18-Hexaoxatriacontan-1-ol	298.1	
3055-97-8	Heptaethylene glycol dodecyl ether	301.1	
3055-99-0	Nonaethylene glycol monododecyl ether	306.6	
30557-81-4	Bisabolangelone	430.65	
3056-13-1	1-[2-Deoxy-3,5-bis-O-(4-methylbenzoyl)-β-L-erythro-pentofuranosyl]-5-methyl-2,4(1H,3H)-pyrimidinedione	470.15	
3056-17-5	Stavudine	438.65	
3056-60-8	Phenol, 3-ethyl-, 1-acetate		507.15
3056-73-3	N,3-Diphenyl-2-propenamide	424.15	
30560-19-1	Acephate	358.65	
30562-34-6	Geldanamycin	526.65	
30566-92-8	5-[2-[Bis(phenylmethyl)amino]acetyl]-2-hydroxybenzamide	452.65	
3057-74-7	4-(1,1-Dimethylethyl) hydrogen L-aspartate	462.65	
30574-97-1	(2E)-2-Methyl-2-butenenitrile		411.35
30578-37-1	Amezinium metilsulfate	1949.15	
3058-01-3	(±)-3-Methyladipic acid	374.15	
3058-04-6	2,4,8,10-Tetraoxaspiro[5.5]undecane-3,9-dipropanenitrile	346.65	
3058-05-7	2,4,8,10-Tetraoxaspiro[5.5]undecane-3,9-dipropanoic acid	480.65	
3058-38-6	TATB	597.15	
3058-39-7	4-Iodobenzonitrile	401.65	
3058-47-7	1-(Methylthio)-2-nitrobenzene	359.15	
30580-17-7	1,3-Benzenedicarboxylic acid, polymer with 1,4-benzenedicarboxylic acid and 1,4-butanediol	423.15	
30581-70-5	Cyclohexanedione	311.15	
30586-10-8	Dichloropentane		353.15
30586-18-6	Pentamethylheptane	193.15	
30587-18-9	2-Hydroxy-1,2-bis(methoxyphenyl)ethanone	386.15	
306-03-6	Hyoscyamine hydrobromide	425.15	
306-07-0	Pargyline hydrochloride	427.65	
306-08-1	Homovanillic acid	416.65	
306-11-6	2-Propanol, 1-[(1-methylethyl)amino]-3-(3-methylphenoxy)-, hydrochloride (1:1)	393.65	
306-12-7	Oxophenarsine	559.65	
306-14-9	L-Histidyl-L-histidine	521.15	
306-19-4	Pivalylbenzhydrazine	341.65	
306-20-7	Fenaclon	332.35	
306-21-8	Hydroxyamphetamine hydrobromide	444.65	
306-23-0	(±)-3-(4-Hydroxyphenyl)lactic acid	413.15	
306-37-6	Dimethylhydrazine dihydrochloride	438.15	
306-44-5	2-Oxopropanal 1-oxime	342.15	
306-53-6	Ethanaminium, 2,2′-(methylimino)bis[N-ethyl-N,N-dimethyl-, bromide (1:2)	486.65	
306-67-2	Spermine tetrahydrochloride	583.65	
306-83-2	2,2-Dichloro-1,1,1-trifluoroethane	166.15	300.97
306-91-2	Perfluoroperhydrophenanthrene	253.15	483.15
306-92-3	Perfluoro(1-methyldecalin)	203.15	434.15
306-94-5	Perfluorodecalin	263.15	415.15
306-95-6	1,1,2,2,3,3,4,4,4a,5,5,6,6,7,8,8,8a-Heptadecafluorodecahydro-7-(trifluoromethyl)naphthalene		433.65
306-98-9	Perfluoro-1,2-dimethylcyclohexane	217.15	374.65
3060-15-9	4(3H)-Quinazolinone, 3-(2,5-dimethylphenyl)-2-methyl-, hydrochloride (1:1)	498.15	