CAS	name	Tm	Tb
19066-35-4	5,7-Diphenyl-1,3-diazatricyclo[3.3.1.13,7]decan-6-one	530.15	
1907-13-7	Triethylstannyl acetate	403.65	497.15
1907-65-9	N-Butyl-4-methylbenzenesulfonamide	350.15	
19072-77-6	2,2′-Methylenebis[4,6-bis(1,1-dimethylethyl)-3-methylphenol]	481.65	
19074-59-0	Phenol, 2,5-dimethyl-, 1,1′,1′′-phosphate	352.95	
19077-60-2	N-(4-Ethoxyphenyl)maleimide	400.15	
19077-97-5	N4-Acetylsulfaguanidine	534.15	
19077-98-6	Acetylsulfapyridine	481.9	
1908-11-8	Cholesteryl laurate	364.65	
1908-87-8	3-Methyl-2-thiazolidinethione	341.65	
19085-09-7	2,4-Pyrimidinediamine, 5-(4-chlorophenyl)-6-ethyl-, hydrochloride (1:1)	543.15	
19089-47-5	2-Ethoxy-1-propanol		413.65
19093-20-0	(5E)-5-Octen-2-one		444.15
19094-32-7	2-(Ethylsulfonyl)-6-nitrobenzothiazole	436.65	
19094-48-5	3,5-Diiodobenzoic acid	508.15	
19094-52-1	2-(Acetylamino)-3,5-diiodobenzoic acid	502.4	
19094-75-8	2-(2-Chloro-6-methylphenoxy)acetic acid	381.4	
19096-86-7	5-Methyl-2-(1-methylethyl)cyclohexanone oxime	332.15	
19099-93-5	Benzyl 4-oxo-1-piperidinecarboxylate	310.65	
191-07-1	Coronene	710.45	798.15
191-24-2	Benzo[ghi]perylene	550.15	823.15
191-26-4	Anthanthrene	530.15	
191-28-6	peri-Xanthenoxanthene	518.15	
191-30-0	Dibenzo[a,l]pyrene	435.55	
191-33-3	6H-Benzo[cd]pyrene	408.15	
191-48-0	Decacyclene	662.15	
191-53-7	Tetrabenzo[a,cd,j,lm]perylene	617.15	
191-68-4	Dibenzo[g,p]chrysene	491.15	
191-79-7	Tetrabenzo[de,hi,op,st]pentacene	853.15	
191-85-5	Benzo[a]perylene	388.65	
1910-42-5	Methyl viologen	450.65	
1910-68-5	Methisazone	518.15	
19103-02-7	1,3,4,6-Tetrachlorotetrahydro-3a,6a-diphenylimidazo[4,5-d]imidazole-2,5(1H,3H)-diimine	328.15	
19109-66-1	1-Pentanaminium, N,N,N-trimethyl-, iodide (1:1)	498.15	
1911-14-4	Estr-4-en-3-one, 16β,17β-dihydroxy-16-methyl-	450.9	
19115-30-1	α-Ethynyl-4-methoxybenzenemethanol	445.65	
19116-90-6	2,5-Dimethoxybenzenesulfonamide	321.15	
1912-24-9	Atrazine	449.15	
1912-25-0	Heptazine	347.15	
1912-26-1	Trietazine	373.65	
1912-30-7	Ethyl ethanesulfonate	373.65	361.9
1912-32-9	Butyl methanesulfonate		378.65
1912-33-0	Indole-3-acetic acid, methyl ester	398.15	
1912-54-5	3β-Acetoxy-6-nitrocholest-5-ene	376.15	
19121-58-5	Solasonine	557.65	
19121-78-9	Iridate(2-), hexabromo-, potassium (1:2), (OC-6-11)-	793.15	
19122-79-3	Cinnabarite	1123.15	
191226-98-9	tert-Butyl [(1S,2R)-1-benzyl-2-hydroxy-3-[isobutyl[(4-nitrophenyl)sulfonyl]amino]propyl]carbamate	440.65	
19125-99-6	Solvent Yellow 43	398.65	
1913-12-8	L-Aspartic acid, N-[(1,1-dimethylethoxy)carbonyl]-, 4-(1,1-dimethylethyl) ester, compd. with N-cyclohexylcyclohexanamine (1:1)	419.15	
19130-96-2	Deoxynojirimycin	477.65	
19132-06-0	(+)-2,3-Butanediol	291.35	453.65
19135-08-1	1-(2-Propyn-1-yl)cyclohexanol	329.65	
19135-17-2	Benzoic acid, 4-[(aminoiminomethyl)amino]-, 4-nitrophenyl ester, hydrochloride (1:1)	500.15	
1914-58-5	(3E)-4-Phenyl-3-butenoic acid	352.15	
1914-61-0	Acetic acid, [(2-phenylethenyl)thio]-, (Z)-	362.15	
1914-78-9	Ethyl 4,5-dihydro-5-oxo-1-phenyl-4-(2-phenyldiazenyl)-1H-pyrazole-3-carboxylate	426.15	
19145-60-9	3α-Benzoyloxytropane	539.45	
19145-96-1	1,4-Diethyl trans-1,4-cyclohexanedicarboxylate	319.55	
19146-62-4	1,10-Decanediamine, N,N′-bis(2-methyl-4-quinolinyl)-, diacetate	400.65	
19149-85-0	Oleyl laurate	285.65	
1915-80-6	3-(2,4-Dimethylphenyl)-2-methyl-4(3H)-quinazolinone	408.15	
19150-42-6	1,2-Ethanediol, 1,2-dicarbamate	440.15	
19150-71-1	Octadecyl 3-oxobutanoate	313.65	
19152-36-4	2′-Hydroxy-3,4-dimethoxychalcone	387.65	
19156-50-4	5-Methyl-3-thiophenecarboxylic acid	404.65	
19158-51-1	4-Methylbenzenesulfonyl cyanide	320.15	
19159-68-3	1,2-Bis(2,4,6-trinitrophenyl)diazene	488.15	
1916-07-0	Methyl 3,4,5-trimethoxybenzoate	355.65	
1916-08-1	3-Hydroxy-4,5-dimethoxybenzoic acid	467.65	
1916-59-2	2-Aminophenoxazin-3-one	522.65	
191605-10-4	(S,S)-Di-p-anisoyltartaric acid	459.15	
19169-97-2	Bis(acetato-κO)(3-methylphenyl)iodine	424.15	
1917-44-8	4,6-Diphenyl-1,3,5-triazin-2(1H)-one	568.15	
1917-64-2	5-Methoxymethylfurfural	265.15	
19172-47-5	Lawesson's reagent	502.15	
19177-72-1	N-Phenyl-N′-(2,2,2-trichloro-1-hydroxyethyl)urea	415.15	
19179-31-8	3,5-Dimethoxybenzonitrile	360.65	
1918-00-9	Dicamba	388.15	
1918-02-1	Picloram	491.65	
1918-08-7	Dipropalin	353.15	
1918-11-2	Terbucarb	476.65	
1918-13-4	Chlorthiamid	424.15	
1918-16-7	Propachlor	344.65	
1918-18-9	Methyl N-(3,4-dichlorophenyl)carbamate	386.15	
1918-77-0	2-Thiopheneacetic acid	543.15	
1918-79-2	5-Methyl-2-thiophenecarboxylic acid	411.65	
19183-15-4	1-Methyl-4,5-dinitroimidazole	347.65	
19183-16-5	2-Methyl-4,5-dinitroimidazole	480.15	
19183-17-6	1,2-Dimethyl-4,5-dinitro-1H-imidazole	323.65	
19184-65-7	2-(Bromomethyl)-2-(hydroxymethyl)-1,3-propanediol	349.15	
19186-33-5	Aristeromycin	487.15	
19186-97-1	Tris(tribromoneopentyl) phosphate	445.65	
19188-18-2	Selenocyanic acid, 4-nitrophenyl ester	408.65	
19189-19-6	Hexanoic acid, 2-ethyl-, gadolinium(3+) salt (3:1)	421.85	
1919-38-6	7-(2-Chloropropyl)-3,7-dihydro-1,3-dimethyl-1H-purine-2,6-dione	424.65	
1919-43-3	2,3-Dichloro-6-quinoxalinecarbonyl chloride	385.15	
1919-48-8	2,4,6-Triphenoxy-1,3,5-triazine	508.65	
19198-58-4	Propanoic acid, 2-(2,4-dichlorophenoxy)-, compd. with methanamine (1:1)	424.15	
19198-75-5	Decyl gallate	367.65	
19199-82-7	Acetic acid, 2-bromo-, 4-nitrophenyl ester	346.65	
192-47-2	Dibenzo[h,rst]pentaphene	570.15	
192-51-8	Dibenzo[fg,op]naphthacene	627.15	
192-65-4	Dibenzo[a,e]pyrene	506.65	
192-70-1	Benzo[a]naphtho[8,1,2-cde]naphthacene	535.65	
192-97-2	Benzo[e]pyrene	451.65	
1920-66-7	2-Chloro-5-nitro-4-pyrimidinamine	493.65	
19201-39-9	2-(6-Methoxy-3-methyl-2(3H)-benzothiazolylidene)-N-phenylethanethioamide	489.65	
19202-92-7	Tenulin	467.15	
19204-12-7	Carbamodithioic acid, N,N-dimethyl-, 2-oxopropyl ester	346.15	
19206-95-2	N-(2-Amino-2-oxoethyl)-3-oxobutanamide	433.65	
1921-70-6	Pristane		569.15
19216-56-9	Prazosin	552.15	
192185-72-1	Tipifarnib	507.15	
19219-99-9	5-Chloro-2-methylbenzoxazole	336.15	
1922-48-1	(3β,16α)-16,17-Epoxy-3-hydroxy-16-methylpregn-5-en-20-one	463.15	
1922-67-4	3,4,6,7,8,9-Hexahydro-4,6,6,9,9-pentamethyl-1H-naphtho[2,3-c]pyran	318.2	
19220-40-7	11-Octadecynoic acid	319.15	
19222-41-4	Ammonium gluconate	427.15	
19224-27-2	1,4-Butanediol, 1,4-dibenzoate	353.65	
19225-02-6	7-Hydroxy-4-propyl-2H-1-benzopyran-2-one	403.15	
19225-18-4	7-(Acetyloxy)-4-hydroxy-2H-1-benzopyran-2-one	495.15	
19227-13-5	4-Methylbenzamidoxime	421.65	
1923-70-2	Tetrabutylammonium perchlorate	478.65	
19230-28-5	1,3-Dichloro-2-iodobenzene	341.15	
19230-45-6	N-(3-Iodophenyl)acetamide	392.65	
19230-81-0	Creatinine hydrochloride	557.15	
19231-06-2	Iodonium, bis(4-methoxyphenyl)-, bromide (1:1)	464.15	
19237-84-4	Prazosin hydrochloride	531.65	
19241-17-9	4-Isothiocyanato-1,2-dimethylbenzene		536.65
19241-24-8	1-(1,1-Dimethylethyl)-4-isothiocyanatobenzene	303.15	
19241-38-4	4-Bromo-1-isothiocyanato-2-methylbenzene	323.65	
19243-95-9	(4-Hydroxyphenyl)methacrylamide	427.15	
19244-91-8	1,4-Bis(2-methyl-1-propen-1-yl)piperazine	309.15	
19245-23-9	1,3-Dimethyl 2-cyanoimidodicarbonate	374.15	
19245-41-1	2,4-Bis(1,1-dimethylethyl)-5-ethylphenol	353.65	
1925-54-8	1-(Bromomethyl)-7,7-dimethylbicyclo[2.2.1]heptan-2-one	350.15	
19250-09-0	N-(3,4-Dichlorophenyl)thiourea	476.65	
19250-17-0	Myrtenic acid	327.15	
19253-88-4	Trimethyllysine	520.15	
19254-69-4	Ergosta-4,6,8(14),22-tetraen-3-one	386.65	
19259-11-1	2,3,4,5-Tetraiodothiophene	471.15	
19259-90-6	Acetyl-d3 chloride		326.15
1926-94-9	Dexamethasone trimethylacetate	535.65	
19262-68-1	Focalin	495.15	
19264-68-7	9H-Carbazol-9-ylphenylmethanone	370.65	
19269-28-4	3-Methylhexanal		416.15
1927-06-6	Ethanaminium, 2-hydroxy-N,N,N-trimethyl-, bromide (1:1)	561.15	
1927-25-9	Homoserine	460.15	
1927-44-2	10H-Phenothiazin-3-ol	460.65	
1927-95-3	4-Bromophenyl acetate	294.65	510.65
19274-72-7	1,1′-(1,8-Naphthalenediyl)bis[1-phenylmethanone]	462.65	
19275-44-6	1-Isomangostin	428.65	
19275-47-9	Cudraflavone C	427.65	
1928-30-9	2-Methyltricosane	411.4	480.9
1928-37-6	2,4,5-T Methyl ester	361.4	
1928-38-7	2,4-D methyl ester	392.15	
1928-39-8	2,4,5-Trichlorophenoxyacetic acid ethyl ester	337.15	
1928-44-5	2,4-D octyl ester		444.15
1928-61-6	2,4-D propyl ester		420.15
19282-87-2	Phenyl 3-ethoxy-3-iminopropanoate	347.15	
19283-51-3	2,3,4,9-Tetrahydro-8-methyl-1H-carbazole	371.15	
19283-70-6	2-Hydroxy-3,4-dimethoxybenzaldehyde	347.15	
19284-13-0	α-Methyl-α-(2-propen-1-yloxy)benzeneacetamide	327.65	
19286-75-0	Disperse Violet 27	434.15	
19287-45-7	Diborane	108.15	180.65
1929-29-9	3-(4-Methoxyphenyl)propionic acid	372.15	
1929-30-2	Ethyl p-methoxycinnamate	323.15	
1929-56-2	Ethyl 4-[2-(4-chloro-2-nitrophenyl)diazenyl]-4,5-dihydro-5-oxo-1-phenyl-1H-pyrazole-3-carboxylate	473.15	
1929-82-4	Nitrapyrin	336.15	409.9
1929-87-9	Methyl 2-(2-naphthalenyloxy)acetate	348.15	
1929-88-0	Benzthiazuron	538.15	
19293-52-8	1,3-Diphenyl-1,3-propanediamine	553.15	
192944-51-7	Ethyl 1H-indazole-5-carboxylate	396.15	
19296-90-3	(+)-1,5,5-Trimethyl-2-thiabicyclo[2.2.2]octane	471.15	
193-39-5	Indeno[1,2,3-cd]pyrene	436.75	809.15
193-98-6	Naphth[2,1,8-def]isoquinoline	437.15	
1930-72-9	4-Chloro-3,5-dinitrobenzonitrile	416.9	
1930-92-3	4-Isocyano-1-methyl-2-nitrobenzene	349.15	
19301-39-4	Benzo[b]thiophene-6-ol	375.4	
1931-61-9	1,4-Bis(1,1-dimethylethyl) 2-methylbutanediperoxoate	299.65	
1931-62-0	tert-Butyl peroxymaleate	403.65	
1931-83-5	Nonanedioic acid, 1,9-bis(2,2,4-trimethylpentyl) ester		371.15
19311-91-2	N,N-Diethyl-2-hydroxybenzamide	376.65	
19315-64-1	N-(4-Ethoxyphenyl)-N-hydroxyacetamide	376.65	
19318-90-2	N-2-Propen-1-yl-5-[(2-propen-1-ylamino)thioxomethyl]-9-thioxo-2,5,8,10-tetraazatridec-12-enethioamide	368.15	
1932-03-2	1-(2-Chloroethyl)piperidine	502.65	
1932-04-3	1,2-Dipiperidinoethane	272.65	538.15
1932-50-9	Potassium glycolate	389.65	
1932-92-9	2-Propyn-1-ol, 1-propanoate		410.65
19322-27-1	4-Hydroxy-5-methyl-3(2H)-furanone	400.65	
19326-29-5	Etamiphylline camsylate	447.15	
19329-89-6	Isoamyl lactate		475.55
1933-50-2	N-[4-(3,3-Dimethyl-1-triazen-1-yl)phenyl]acetamide	431.15	
19335-11-6	1H-Indazol-5-amine	449.65	
19339-59-4	Thiocyanic acid, 2-(4-chlorophenyl)-2-oxoethyl ester	412.05	
1934-71-0	Cyclohexanamine, 1-phenyl-, hydrochloride (1:1)	520.65	
1934-75-4	Sodium dicyanamide	588.15	
1934-92-5	N-Methyl-N-phenylbenzamide	331.4	
19340-56-8	3-(Butyl)dihydrofuran-2(3H)-one	382.15	
19343-78-3	4-Methyl-1,2,3,4-tetrahydroquinoline		416.65
19351-20-3	N,N-Diethyl-2-hydroxy-3-methoxybenzamide	359.15	
19351-91-8	N-(1-Naphthalenylmethyl)acetamide	400.9	
19352-51-3	2-Propenoic acid, 2-methyl-, 8-quinolinyl ester	324.15	
19353-86-7	6-Nitrotetralin	304.15	
19353-92-5	4-(Dimethylamino)benzohydrazide	443.65	
19354-27-9	Methyl tetrahydrofurfuryl ether		413.15
19354-50-8	3-Methoxybenzo[b]thiophene-2-carboxylic acid	449.65	
19354-51-9	Methyl 3-methoxybenzo[b]thiophene-2-carboxylate	338.15	
19357-45-0	17-(Acetyloxy)-21-hydroxypregn-4-ene-3,20-dione	478.65	
19360-67-9	4-(Carboxymethoxy)benzoic acid	554.15	
19361-58-1	15-cis-β-Carotene	423.65	
19367-61-4	4H-1,2,4-Benzothiadiazine-7-sulfonamide, 6-bromo-, 1,1-dioxide	621.15	
19368-18-4	2-[[(2,6-Dimethylphenyl)amino]carbonyl]benzoic acid	461.65	
1937-19-5	Aminoguanidinium chloride	436.65	
1937-62-8	Methyl elaidate	283.9	
19371-31-4	2,4-Dichloro-6-(1-piperidinyl)-1,3,5-triazine	363.4	
19374-99-3	Benzothiazolium, 3-ethyl-2-methyl-, ethyl sulfate (1:1)	413.15	
19377-73-2	α-Hydroxy-2-furanacetic acid	387.15	
19379-90-9	Benzoxonium chloride	381.15	
19386-06-2	Ethyl 3-(adamant-1-yl)-3-oxopropionate	382.15	
19387-54-3	2-[(4-Nitrophenyl)thio]benzothiazole	368.65	
19387-91-8	Tinidazole	400.65	
19388-87-5	Taurolidine	429.15	
1939-22-6	2-Methyl-N-[3-(trifluoromethyl)phenyl]benzamide	399.4	
1939-26-0	2-Methyl-N-[3-(trifluoromethyl)phenyl]pentanamide	344.65	
1939-27-1	2-Methyl-N-[3-(trifluoromethyl)phenyl]propanamide	373.65	
1939-29-3	2,2,2-Trichloro-N-[3-(trifluoromethyl)phenyl]acetamide	377.65	
1939-79-3	1-Propanone, 1-[3-chloro-2-(2,3-dihydroxypropoxy)phenyl]-		424.15
1939-99-7	Benzenemethanesulfonyl chloride	365.15	
19393-45-4	1,4-Dimethyl (2E)-2-chloro-2-butenedioate	325.65	497.15
19393-92-1	2-Bromo-1,3-dichlorobenzene	338.15	515.15
19393-96-5	2-Bromo-1,3,5-trichlorobenzene	338.15	
19395-39-2	α-Phenyl-2-piperidineacetamide	446.15	
19395-41-6	2-Piperidineacetic acid, α-phenyl-	521.15	
19395-58-5	MQZ	409.15	
19395-78-9	4(1H)-Quinazolinone, 2,3-dihydro-1-[2-(4-morpholinyl)acetyl]-3-phenyl-, hydrochloride (1:1)	485.15	
19396-06-6	Polyoxin B	424.65	
19397-79-6	2-Bromo-N-(2-methylphenyl)propanamide	406.65	
19398-48-2	2,3-Dibromo-2-butene	238.65	430.45
19398-61-9	2,5-Dichlorotoluene	278.15	473.15
19398-77-7	3,4-Diethylhexane		437.05
194-03-6	4-Azapyrene	430.65	
194-59-2	7H-Dibenzo[c,g]carbazole	431.15	
194-69-4	Benzo[c]chrysene	395.15	
1940-18-7	1-Ethylcyclohexanol	307.65	439.15
1940-19-8	1-Ethenylcyclohexanol	277.15	340.65
1940-20-1	2,3,4-Trichloro-6-[(2,3,5-trichloro-6-hydroxyphenyl)methyl]phenol	435.65	
1940-42-7	4-Bromo-2,5-dichlorophenol	344.65	
1940-43-8	Tetrachlorophene	441.15	
1940-49-4	3-([1,1′-Biphenyl]-4-yloxy)-1,2-propanediol	433.65	
1940-57-4	9-Bromofluorene	377.15	
19402-64-3	Ammonium benzenesulfonate	557.65	
19403-92-0	2,4,6-Triiodoresorcinol	417.15	
19404-07-0	4-Hydroxy-α,6-dimethyl-1,3-dioxane-2-ethanol	369.15	
19406-51-0	4-Amino-2,6-dinitrotoluene	444.15	
19406-86-1	3-Amino-4-methylbenzamide	386.65	
19407-42-2	2-(Acetylamino)-6-chlorobenzoic acid	478.65	
19408-46-9	Kasugamycin hydrochloride	476.15	
19408-74-3	1,2,3,7,8,9-Hexachlorodibenzo-p-dioxin	516.65	
19408-84-5	Dihydrocapsaicin	338.85	
1941-24-8	Tetramethylammonium nitrate	683.15	
1941-26-0	Ethanaminium, N,N,N-triethyl-, nitrate (1:1)	553.15	
1941-52-2	D-Glucose, diethyl dithioacetal	398.15	
19411-80-4	Ethyl 2-[(4-chlorophenyl)methylene]-3-oxobutanoate	360.15	
1942-31-0	1-[4-(2-Phenylethynyl)phenyl]ethanone	371.65	
1942-45-6	4-Octyne	172.15	404.75
1942-46-7	5-Decyne	200.15	450.15
1942-52-5	(Diethylamino)ethanethiol hydrochloride	445.65	
1942-61-6	1-(4-Isocyanatophenyl)-2-phenyldiazene	370.65	
1942-71-8	2-[4-(1,1-Dimethylethyl)phenoxy]cyclohexanol	367.15	
19427-28-2	N-Formyl-L-aspartic acid	400.9	
19427-36-2	(11α,16α)-16,17-Epoxy-11-hydroxypregn-4-ene-3,20-dione	511.4	
19428-14-9	Benproperine phosphate	424.15	
19429-30-2	Dichlorobis(1,1-dimethylethyl)stannane	315.65	
1943-16-4	Chlorotrinitromethane	277.65	
1943-79-9	Phenyl methylcarbamate	359.15	
1943-83-5	2-Chloroethyl isocyanate	417.65	408.15
1943-87-9	Carbamic acid, N-(4-nitrophenyl)-, methyl ester	449.65	
1943-95-9	3-Cyclohexylphenol	325.15	
1943-96-0	4,4′-Bicyclo[2.2.1]hept-2-ylidenebis[phenol]	470.15	
1943-97-1	4,4′-(Octahydro-4,7-methano-5H-inden-5-ylidene)bis[phenol]	497.15	
19430-93-4	(Perfluorobutyl)ethylene		332.15
19431-84-6	Curcumenol	387.15	
19433-84-2	2,3-Dichloropropanamide	376.15	
19434-30-1	(2-Hydroxyphenyl)(4-methylphenyl)methanone	388.15	
19434-65-2	Propanal, 3-chloro-		403.15
19435-97-3	(-)-δ-Cadinol	412.65	
19436-52-3	N-Acetyl-D-alanine	398.15	
19437-20-8	2-Phthalimidopropiophenone	360.65	
19437-26-4	2-Pyridyl ketone	325.65	
19438-10-9	Methyl 3-hydroxybenzoate	346.15	554.15
19438-60-9	Rikacid MH	244.15	
19438-61-0	4-Methylphthalic anhydride	366.15	572.15
1944-01-0	1-(Phenylmethyl)cyclohexanol	306.15	
1944-05-4	2,3,4,5,6-Pentafluoro-α-phenylbenzenemethanol	320.15	
1944-12-3	Fenoterol hydrobromide	495.65	
194413-58-6	Semaxanib	494.15	
19444-21-4	2-Propen-1-yl 2-hydroxy-2-methylpropanoate		439.15
19447-06-4	α,2,6-Trimethylbenzenemethanol	342.15	
19447-62-2	(Acetato-κO)[4-[2-[4-(dimethylamino)phenyl]diazenyl]phenyl]mercury	488.15	
19449-26-4	N,N-Dimethyl-1,3-dioxolan-2-amine		416.15
1945-53-5	Palustric acid	437.65	
1945-78-4	2,2′-Methylenebis[benzothiazole]	553.15	
1945-84-2	2-Ethynylpyridine	350.15	
1945-92-2	2-[(2,4-Dinitrophenyl)amino]ethanol	363.15	
19457-57-9	6-Methylenepregn-4-ene-3,20-dione	407.15	
1946-00-5	Limonene-1,2-diol	345.9	
1946-74-3	α-Thujaplicin	307.15	
1946-82-3	N-Acetyl-L-lysine	523.15	
19461-38-2	Glycyl-L-isoleucine	530.15	
19462-24-9	N-[2-(1H-Indol-3-yl)ethyl]benzeneacetamide	415.9	
19463-48-0	3-Chloro-4-hydroxy-5-methoxybenzaldehyde	438.15	
19466-47-8	Stigmastan-3β-ol	409.65	
19467-62-0	Dihydro-β-ergocryptine	467.65	
1947-00-8	N-(Benzyloxycarbonyl)-6-aminohexanoic acid	328.15	
1947-33-7	Benzenediazonium, 4-nitro-, 4-methylbenzenesulfonate (1:1)	408.15	
1947-47-3	3-Amino-2-phenyl-1H-inden-1-one	540.15	
1947-59-7	2,3-Butanediol, 1,4-dibromo-, (R*,S*)-	409.9	
19472-74-3	(2-Bromophenyl)acetonitrile	274.15	
19479-83-5	1,1′-(1,2-Ethanediyl)bis[piperazine]	370.65	481.65
1948-31-8	L-Alanyl-L-alanine	570.15	
1948-33-0	tert-Butylhydroquinone	400.65	
1948-39-6	4-Hydroxy-3,5-diiodobenzeneacetic acid	491.65	
1948-40-9	4-Hydroxy-3,5-diiodobenzaldehyde	473.65	
1948-71-6	N-Acetyl-L-tyrosinamide	497.15	
1948-92-1	4-[(4-Nitrophenyl)sulfonyl]benzenamine	443.15	
19480-15-0	Ethenyl 3-butenoate		390.15
19484-26-5	1-Tridecanethiol		563.95
19485-08-6	Ethyl 6,7-bis(cyclopropylmethoxy)-4-hydroxy-3-quinolinecarboxylate	561.15	
19487-71-9	Quinolinium, 1-ethyl-4-[2-(phenylamino)ethenyl]-, iodide (1:1)	518.65	
1949-07-1	1-Propanone, 3,3,3-tris(4-chlorophenyl)-1-(4-methyl-1-piperazinyl)-, hydrochloride (1:1)	534.15	
1949-20-8	Oxolamine citrate	414.65	
1949-45-7	Metrizoate	554.65	
1949-51-5	Benzoic acid, 3,5-diamino-, ethyl ester	357.15	
1949-88-8	L-Altrose	381.4	
1949-89-9	2-Deoxy-D-galactose	377.65	
19490-92-7	α-Methyl-α-phenyl-2-pyridinemethanol	305.15	
19492-03-6	8-Hydroxy-7-methoxy-2H-1-benzopyran-2-one	442.65	
19493-31-3	2-Chloro-2′-methyl-1,1′-biphenyl	290.15	549.15
195-19-7	Benzo[c]phenanthrene	341.15	
195-52-8	Phenanthro[3,4-b]thiophene	365.15	
195-68-6	Phenanthro[4,3-b]thiophene	366.65	
195-84-6	Tricycloquinazoline	582.15	
1950-39-6	Butanediamide, N4-[5-[[4-[[5-(acetylhydroxyamino)pentyl]amino]-1,4-dioxobutyl]hydroxyamino]pentyl]-N1-(5-aminopentyl)-N1-hydroxy-, hydrochloride (1:1)	446.65	
1950-68-1	4-Methoxybenzenesulfonic acid hydrazide	372.15	
1950-85-2	Methanesulfonothioic acid, sodium salt (1:1)	546.65	
19500-94-8	2-Acetyl-1,4-diamino-9,10-anthracenedione	512.15	
19501-58-7	(4-Methoxyphenyl)hydrazine hydrochloride	433.65	
19504-77-9	Pecilocin	315.15	
19506-87-7	1,3-Dihydro-α-methyl-1,3-dioxo-2H-isoindole-2-acetic acid	437.15	
1951-12-8	3-Chlorobutanoic acid	316.9	
1951-26-4	(2-Butyl-3-benzofuranyl)(4-hydroxy-3,5-diiodophenyl)methanone	419.8	
1951-53-7	1,4-Dihydro-3,5-diiodo-1-methyl-4-oxo-2,6-pyridinedicarboxylic acid	447.15	
19519-71-2	1,3-Dimethyl-2-nitrosobenzene	415.15	
1952-35-8	2-[[(4-Methoxyphenyl)methylene]amino]ethanol	308.15	
1952-67-6	5-(2-Buten-1-yl)-5-ethyl-2,4,6(1H,3H,5H)-pyrimidinetrione	384.65	
19520-38-8	3-Methyl-6-phenyl-3,5-hexadien-2-one	344.65	
19523-57-0	2-Ethoxy-1-naphthalenecarboxaldehyde	388.15	
19524-06-2	4-Bromopyridine hydrochloride	511.15	
195251-91-3	7-(1,1-Dimethylethyl)-2H-1,5-benzodioxepin-3(4H)-one	340.15	
19528-55-3	Hexadecanoic acid, lead salt (1:?)	385.15	
1953-02-2	Tiopronin	369.15	
1953-04-4	Galantamine hydrobromide	528.65	
1953-33-9	5-Butyl-2,4,6(1H,3H,5H)-pyrimidinetrione	487.15	
1953-38-4	7-Amino-9H-fluoren-2-ol	533.15	
1953-54-4	5-Hydroxyindole	380.65	
1953-99-7	Tetrachlorophthalonitrile	516.9	
19530-88-2	7-Ethylguanine	521.15	
19538-78-4	N-Formyl-L-cysteine	391.65	
1954-28-5	Triethylene glycol diglycidyl ether	260.15	
1954-34-3	Isothiocyanatotriphenylstannane	443.15	
1954-45-6	4-Methyltryptophan	544.15	
1954-79-6	Mecloralurea	410.65	
1954-96-7	3-Amino-5-[(methylamino)carbonyl]benzoic acid	501.65	
1954-97-8	3-[(Methylamino)carbonyl]-5-nitrobenzoic acid	524.9	
19542-04-2	2,5-Bis(2-aminophenyl)-1,3,4-oxadiazole	430.65	
19542-67-7	(2E)-3-[(4-Methylphenyl)sulfonyl]-2-propenenitrile	405.65	
19542-77-9	Benzylmercapturic acid	429.65	
19545-26-7	Wortmannin	513.15	
19545-95-0	2-(4-Chloro-3,5-dimethylphenoxy)acetic acid	424.15	
19547-88-7	N,S-Diacetyl-L-cysteine methyl ester	373.15	
19549-70-3	2,2-Dimethyl-3-heptanol	335.15	
19549-71-4	2,3-Dimethyl-3-heptanol		315.15
19549-73-6	2,6-Dimethyl-3-heptanol	341.15	448.15
19549-77-0	2,4-Dimethyl-4-heptanol		444.15
19549-80-5	4,6-Dimethyl-2-heptanone		463.65