CAS	name	Tm	Tb
119967-49-6	2-(3-Pyridinyloxy)ethanol	371.65	
1199773-68-6	1-(4-Bromophenyl)-1H-pyrazole-4-carbonitrile	472.15	
1200-22-2	α-Lipoic acid	320.15	
1200-26-6	3,3,5,5-Tetramethyl-2,6-piperidinedione	411.15	
1200-70-0	Dihydro-3-hydroxy-3-phenyl-2(3H)-furanone	338.15	
120004-79-7	7-(4-Chlorobutoxy)-3,4-dihydro-2(1H)-quinolinone	374.15	
120013-57-2	5-O-Desmethyl donepezil	443.65	
1200219-16-4	5-Chloro-1,2-benzisoxazole-3-methanol	423.15	
1200443-26-0	4-Methoxy-3-(4,4,5,5-tetramethyl-1,3,2-dioxaborolan-2-yl)benzeneacetic acid	379.65	
120067-83-6	Fipronil sulfide	435.15	
120068-79-3	5-Amino-1-[2,6-dichloro-4-(trifluoromethyl)phenyl]-1H-pyrazole-3-carbonitrile	409.65	
120077-69-2	4-Bromo-3-chlorobenzaldehyde	325.15	
120085-67-8	D-lyxo-Hept-2-enononitrile, 2,6-anhydro-, 3,4,5,7-tetraacetate	373.15	
120097-64-5	1,3-Diethyl 2-(acetylamino)-2-(2,2,2-trifluoroethyl)propanedioate	343.15	
1201-08-7	8-Bromo-2-methyl-4-quinolinol	478.15	
1201-15-6	1,3-Dihydro-1-methyl-3-phenyl-2H-imidazol-2-one	392.15	
1201-74-7	1-(2-Naphthyl)ethylamine	296.15	430.15
120157-96-2	Methyl 4-[[[(1,1-dimethylethoxy)carbonyl]amino]methyl]benzoate	346.9	
120157-97-3	1,1-Dimethylethyl N-[2-(4-bromophenyl)ethyl]carbamate	331.65	
120157-98-4	1,1-Dimethylethyl N-acetylcarbamate	350.65	
120157-99-5	1,1-Dimethylethyl N-(1-oxopropyl)carbamate	393.65	
120158-04-5	Carbamic acid, (3-chloro-1-oxopropyl)-, 1,1-dimethylethyl ester	369.9	
120161-08-2	3-(1H-Benzimidazol-2-ylamino)-1-propanol	412.65	
120163-18-0	gluco-Obtusifolin	466.15	
120165-53-9	1-Amino-4-methoxy-2,3,5-trimethylbenzene	379.65	
120173-05-9	2-(Phenylsulfinyl)-1-(1-pyrrolidinyl)ethanone	399.15	
120173-42-4	Ethanone, 1,1′-(5-bromo-1,3-phenylene)bis-	356.15	
1202-10-4	2,6-Diethyl-3,5-dimethyl-4H-pyran-4-one	311.85	
1202-82-0	2-(Acetyloxy)bicyclo[3.2.1]octane-2-carbonitrile	387.65	
120200-06-8	6,6,6-Trifluoro-D-norleucine	546.15	
120202-66-6	Clopidogrel bisulfate	457.15	
120205-51-8	1,1-Dimethylethyl N-[(1S)-2-phenyl-1-(2-thiazolyl)ethyl]carbamate	355.15	
120208-26-6	2-Methylthiazolo[4,5-b]pyridin-5(4H)-one	516.15	
120208-28-8	Pyridine, 3-(2-nitroethenyl)-, hydrochloride (1:1)	497.65	
120225-75-4	1-(6-Amino-2-chloro-9H-purin-9-yl)-1-deoxy-N-ethyl-2,3-O-(1-methylethylidene)-β-D-ribofuranuronamide	480.65	
120253-63-6	Polyterephthalamide	728.15	
120258-69-7	2,8-Dichloroquinoxaline	465.65	
120277-70-5	3-(Bromomethyl)quinoline	327.65	
120279-26-7	4H-Thieno[2,3-b]thiopyran-2-sulfonamide, 5,6-dihydro-4-hydroxy-6-methyl-, 7,7-dioxide	469.15	
120298-30-8	Squamocin	321.9	
1203-25-4	6-Chloro-1,3-dimethyl-5-nitro-2,4(1H,3H)-pyrimidinedione	339.65	
1203-44-7	Cyclopropanamine, 2-(1-naphthalenyl)-, hydrochloride (1:1)	487.15	
1203-87-8	3-Amino-N-(aminoiminomethyl)-6-chloro-2-pyrazinecarboxamide	511.15	
1203-96-9	5-Methyl-1H-indazole-3-carboxylic acid hydrazide	522.15	
1203-97-0	5-Chloro-1H-indazole-3-carboxylic acid hydrazide	566.15	
1203-98-1	5-Fluoro-1H-indazole-3-carboxylic acid hydrazide	526.15	
120341-33-5	N-[(1,1-Dimethylethoxy)carbonyl]glutamic acid	384.15	
1204-42-8	2′-Chloro[1,1′-biphenyl]-4-amine	372.15	
1204-44-0	4′-Chloro[1,1′-biphenyl]-2-amine	344.15	
1204-86-0	4-Morpholinobenzaldehyde	336.15	
120443-30-3	(-)-Carbovir	437.57	
120448-97-7	N-Phenyl-N-[4-phenyl-1-(2-phenylethyl)-4-piperidinyl]propanamide	496.65	
120450-23-9	7-(4-Chlorophenyl)-2,4-dimethylpyrrolo[1,2-a]pyrimidine-8-carboxamide	573.65	
120491-88-5	4-Bromo-2,6-pyridinedimethanol	432.15	
1205-40-9	2-Chloro-N-phenylbenzenamine	288.65	
1205-41-0	2-Pyridinamine, N-2-pyridinyl-, 1-oxide	438.65	
1205-52-3	8-(Dimethylamino)-1,5,6,7,8,9-hexahydro-1-methyl-2H-azonin-2-one		381.15
120511-72-0	3,5-Bis(2-cyanoprop-2-yl)toluene	399.65	
120511-74-2	(3-Cyanomethyl-5-methylphenyl)acetonitrile	346.15	
120511-80-0	Benzoic acid, 3-(cyanomethyl)-5-methyl-, methyl ester	329.65	
120523-16-2	(R)-4-Chromanol	342.15	
12053-23-5	Chromium, compd. with hafnium (2:1)	2083.15	
120550-71-2	4-Ethyl-2-methoxy-5-methylphenol	330.65	
1205671-73-3	Methyl 6-chloro-5-(hydroxymethyl)-3-methyl-2-pyridinecarboxylate	360.15	
120568-11-8	5-(4′-Methyl-1,1′-biphenyl-2-yl)-1H-tetrazole	423.15	
1206-44-6	1,2,3,4-Tetrahydro-7-methoxy-1-methyl-1,2-naphthalenediol	360.65	
1206200-21-6	Pyrrolo[1,2-a]quinoxaline-8-carbonitrile	547.15	
1206227-47-5	3H-1,2,3-Benzoxathiazole-3-carboxylic acid, hexahydro-, 1,1-dimethylethyl ester, 2,2-dioxide, (3aR,7aS)-	400.4	
120656-74-8	Trefentanil	473.15	
120686-09-1	7,8-Dihydro-2-methoxy-6(5H)-quinolinone	322.65	
120686-17-1	1,1-Dimethylethyl (βS)-β-aminobenzenebutanoate	303.65	
120686-20-6	1,1-Dimethylethyl 3-amino-2-methylbutanoate	356.15	
1207-47-2	3,4-Bis(1,1-dimethylethyl)phenol	370.4	
1207-73-4	3-(Dimethylamino)-2-methyl-4(3H)-quinazolinone	367.15	
1207175-18-5	4-Ethynyl-2-pyrimidinamine	418.65	
1207181-62-1	Scutebarbatine F	404.15	
1207187-41-4	Ethyl 3-amino-6,8-dichloro-2-quinolinecarboxylate	411.65	
120738-89-8	N-[(6-Chloro-3-pyridinyl)methyl]-N-ethyl-N′-methyl-2-nitro-1,1-ethenediamine	356.65	
1207515-90-9	Bis(4-methoxybenzoyl)diethylgermanium	321.65	
1207537-68-5	Ethyl 5,6-dimethoxybenzo[b]thiophene-2-carboxylate	356.15	
1207537-70-9	1-(4-Chlorobenzo[b]thien-2-yl)-2-(methylsulfinyl)ethanone	430.65	
120759-68-4	1-Butyl-1,3-dihydro-2H-imidazo[4,5-c]pyridine-2-thione	482.65	
120796-24-9	4,9-Dihydroxy-11-diazo-2-methyl-5H-benzo[b]fluorene-5,10(11H)-dione	574.15	
1208-41-9	1-Bromo-4-(2-propen-1-yloxy)-2-(trifluoromethyl)benzene	351.15	
1208-42-0	Guaiacylglycerol	356.15	
1208-65-7	4-tert-Butylcinnamic acid	469.15	
1208-76-0	4H-Azepin-4-one, hexahydro-1-(phenylmethyl)-, hydrochloride (1:1)	457.65	
120806-96-4	(4S)-1-Benzoyl-4-hydroxy-L-proline methyl ester	376.4	
1208081-99-5	Ethyl 4-(3-cyano-2-pyridinyl)benzoate	372.15	
120834-89-1	Benzo[g]-1,3-benzodioxolo[5,6-a]quinolizinium, 5,6,8,13-tetrahydro-9,10-dimethoxy-	436.15	
120842-55-9	1-(2-Chloroethyl)-5-methyl-1H-pyrazole-4-carboxaldehyde	315.15	
120871-60-5	(1E)-2-(2-Propen-1-yl)cyclohexanone oxime	343.65	
1209-68-3	β-Ionylideneacetaldehyde	465.15	
120903-40-4	2,2,3,3,4,4,5,5,6,6-Decafluoro-6-[(1,2,2-trifluoroethenyl)oxy]hexanenitrile		382.65
120958-23-8	Carbonimidodithioic acid, cyano-, methyl (3-nitrophenoxy)methyl ester	376.65	
120958-90-9	N-Ethyl-N′-[3-[3-(1-piperidinylmethyl)phenoxy]propyl]urea	353.9	
120983-64-4	α-(1-Chlorocyclopropyl)-α-[(2-chlorophenyl)methyl]-1H-1,2,4-triazole-1-ethanol	381.15	
1210-13-5	rel-Methyl N-[(1R,2R)-1,2,3,4-tetrahydro-2-iodo-1-naphthalenyl]carbamate	403.15	
1210-40-8	N-(2,3,6-Trimethylpyrazolo[1,5-a]pyrimidin-7-yl)acetamide	453.65	
1210-57-7	1,2,3,4-Tetrahydro-6,7-dimethoxy-1-isoquinolinecarbonitrile	379.65	
121087-85-2	N-[[(4-Amino-6-chloro-2-pyrimidinyl)amino]thioxomethyl]benzamide	513.15	
121104-96-9	Celgosivir	387.65	
121105-78-0	1-Chloro-3-methylpyrido[1,2-a]benzimidazole-4-carbonitrile	491.65	
121124-98-9	B-[3-Formyl-4-(phenylmethoxy)phenyl]boronic acid	472.15	
1211565-11-5	3-[[3,5-Bis(trifluoromethyl)phenyl]amino]-4-[[(1R,2R)-2-(1-piperidinyl)cyclohexyl]amino]-3-cyclobutene-1,2-dione	410.15	
121180-58-3	4-Chloro-6-methyl-2-[(phenylmethyl)thio]pyrimidine	315.65	
121189-76-2	N-[Benzo[d]thiazol-2-yl]-2-bromobenzamide	453.15	
121194-36-3	1-(4-Chlorophenyl)-3,3,3-trifluoro-1-propanone	312.15	
1212-04-0	N-(4-Hydroxy-3-methoxybenzoyl)glycine	442.65	
121216-42-0	(S)-(-)-2-Amino-7-methoxytetralin	476.15	
121219-08-7	B-[4-(Hexyloxy)phenyl]boronic acid	363.15	
1214-16-0	3,6-Dibromo-9-ethenyl-9H-carbazole	347.65	
1214-20-6	2-Methoxyxanthone	404.15	
1214264-45-5	3-(2-Chloro-4-pyrimidinyl)-5-nitro-1H-indole	476.15	
1214264-52-4	4-Bromo-3-(2-chloro-4-pyrimidinyl)-1H-indole	481.65	
1214323-30-4	2,3-Difluoro-6-nitro-1,1′-biphenyl	355.15	
121459-15-2	1H-Indole-1-ethanol	315.65	
121490-68-4	8-Chloro-5-quinolinecarboxylic acid	590.15	
121492-10-2	1,1-Dimethylethyl N-(2-hydroxyethyl)-N-phenylcarbamate	350.65	
1215-42-5	Diazene, 1,2-bis(4-bromophenyl)-, 1-oxide	442.15	
121512-59-2	3-Chloro-α-[(4-methylphenyl)sulfonyl]-2-quinoxalineacetonitrile	520.15	
121512-60-5	3-Chloro-α-[(4-chlorophenyl)sulfonyl]-2-quinoxalineacetonitrile	504.15	
1215295-95-6	7-Azaspiro[4.5]decan-6-one	401.15	
121582-53-4	Methyl 1,6-dihydro-4-hydroxy-6-oxo-1-phenyl-3-pyridazinecarboxylate	402.65	
1216-99-5	4-Amino-N-(5-bromo-3-pyridinyl)benzenesulfonamide	482.15	
121625-80-7	4,5,6,7-Tetrahydro-3,6,6-trimethyl-4-oxo-2-benzofurancarboxylic acid	469.15	
121643-45-6	2,6-Dimethoxy-3-pyridinecarbonitrile	360.65	
121643-49-0	5-(Dichloromethyl)-2-methoxypyridine	322.15	
12167-20-3	Nitrocresol	342.15	
1217-84-1	5,5-Diphenyl-2,4-pentadienal	343.4	
121716-27-6	Ethyl 5-amino-3-methyl-1-phenyl-1H-pyrazole-4-carboxylate	488.15	
121734-80-3	(αR)-α-Methyl-4-(2-methylpropyl)-N-[(1R)-1-phenylethyl]benzeneacetamide	381.15	
121772-98-3	(R)-2-Allylproline	528.15	
1218-41-3	1-[2-(1H-Indol-3-yl)ethyl]-4-piperidinone	407.65	
121817-37-6	(2E)-N-Methyl-3-phenyl-N-[(1Z)-2-phenylethenyl]-2-propenamide	347.15	
121830-25-9	2,3,6-Trichloro-7-nitroquinoxaline	409.15	
12184-52-0	[(1,2,3,4-η)-1,3,5,7-Cyclooctatetraene][(1,2,3,4,5,6-η)-1,3,5,7-cyclooctatetraene]iron	371.65	
121912-30-9	6-(Methylamino)hexanoic acid hydrochloride	339.65	
12194-71-7	Perovskite (Ca(TiO3))	2363.15	
1219454-90-6	5-[(Difluoromethyl)sulfonyl]-1-phenyl-1H-tetrazole	342.65	
1219601-58-7	1-[(4-Methylphenyl)sulfonyl]-3-(trifluoromethyl)-1H-pyrazole	388.65	
1219838-72-8	1,1-Dimethylethyl N-[1-(1,3,4-oxadiazol-2-yl)ethyl]carbamate	355.15	
122-05-4	2,5-Pyrazinedicarboxylic acid	542.15	
122-92-9	4-[[2-(Aminothioxomethyl)hydrazinylidene]methyl]benzoic acid	583.15	
122039-27-4	1,3,2,4-Diselenadiphosphetane, 2,4-diphenyl-, 2,4-diselenide	476.15	
122063-37-0	1-(2-Amino-5-nitro-3-thienyl)ethanone	496.15	
1221-43-8	Auraptenol	382.65	
1221-79-0	2-Methyl-3-(phenylamino)-4(3H)-quinazolinone	481.15	
1221171-92-1	2-(Trifluoromethoxy)-3-pyridinecarboxylic acid	356.65	
1221171-93-2	6-Chloro-2-(trifluoromethoxy)-3-pyridinamine	316.65	
1221171-95-4	6-Chloro-3-iodo-2-(trifluoromethoxy)pyridine	307.15	
1221171-97-6	2-Chloro-6-(trifluoromethoxy)-4-pyridinecarboxylic acid	339.65	
1221171-98-7	2-(Trifluoromethoxy)-4-pyridinecarboxylic acid	423.65	
122143-19-5	1-(2-Chlorophenyl)cyclopropanecarboxylic acid	433.65	
122143-92-4	1,4-Benzenediol, 2-[[(1R,2S,4aS,8aS)-1,2,3,4,4a,7,8,8a-octahydro-1,2,4a,5-tetramethyl-1-naphthalenyl]methyl]-, 4-acetate	425.15	
122151-32-0	(2S)-2-(Phenylmethoxy)-1-(1-pyrrolidinyl)-1-propanone	315.4	
1221589-80-5	2,4-Dichloro-1,5-diiodo-3-methoxybenzene	412.65	
122179-97-9	2-(8-Quinolinylthio)acetic acid 2-[(4-hydroxyphenyl)methylene]hydrazide	493.15	
122181-86-6	Methyl 2-amino-4,5,6,7-tetrahydro-2H-isoindole-1-carboxylate	350.65	
1222-43-1	3,4-Dihydro-6,7-dimethoxy-4-methyl-3-oxo-2-quinoxalinecarboxylic acid	507.65	
122294-10-4	3′,4′-Dimethoxy[1,1′-biphenyl]-4-carboxylic acid	494.65	
122296-01-9	1-[Bis(trimethylsilyl)methyl]-1H-benzotriazole	417.65	
12236-29-2	Disperse Yellow 39	506.15	
122372-21-8	1-[5-Chloro-2-(methylthio)-4-pyrimidinyl]ethanone	319.15	
122384-14-9	FG 8205	419.65	
1224-94-8	Androsta-5,16-dien-3β-ol	529.15	
122433-50-5	Methyl 2-methoxy-5-nitro-3-pyridinecarboxylate	371.9	
122433-51-6	Methyl 5-amino-2-methoxy-3-pyridinecarboxylate	382.9	
122442-02-8	(3S)-3-Pyrrolidineacetic acid	451.15	
122455-84-9	4-Fluoro-2-methyl-5-nitrophenol	413.15	
122455-85-0	5-Amino-4-fluoro-2-methylphenol	420.15	
122455-87-2	1-Fluoro-4-methoxy-3-methyl-2-nitrobenzene	312.15	
122457-30-1	N-(3,7-Dimethyl-6-quinoxalinyl)formamide	488.65	
1224709-68-5	3,6-Bis(5-bromo-2-thienyl)-2,5-bis(2-butyloctyl)-2,5-dihydropyrrolo[3,4-c]pyrrole-1,4-dione	425.6	
1225-43-0	5α-Androstan-17β-ol	436.15	
1225-58-7	(16β)-Estra-1,3,5(10)-triene-3,16-diol	499.9	
122520-77-8	(2E)-2-Cyano-3-(4-hydroxyphenyl)-2-propenoic acid	497.15	
122520-80-3	2-[1-(4-Aminophenyl)ethylidene]propanedinitrile	463.15	
122520-86-9	Tyrphostin AG 213	486.15	
122534-95-6	N,N-Dimethylfuro[3,2-c]pyridine-6-methanamine	316.15	
122537-60-4	(3S,4aS,6aS,7aR,10aS,11aS,11bR,11cR)-3-(Acetyloxy)-1,2,3,4,4a,5,6,11a,11b,11c-decahydro-4,4,8,11c-tetramethylbisoxireno[1,10a:3,4]phenanthro[3,2-b]furan-9(7aH)-one	525.15	
1225532-90-0	1-(1-Methylethyl) 3,3-difluoro-1,1-cyclobutanedicarboxylate	334.65	
122584-14-9	rel-(4aR,8aR)-1-Bromo-4a,5,9,10-tetrahydro-3-methoxy-6-oxo-6H-benzofuro[3a,3,2-ef][2]benzazepine-11(12H)-carboxaldehyde	455.15	
122587-83-1	2-Butenoic acid, 2-methyl-, (1R,4R,4aR,5S,6R,8S,8aR)-8-(acetyloxy)-8a-[(acetyloxy)methyl]-5-[(2S)-2-(2,5-dihydro-5-oxo-3-furanyl)-2-[(2S)-2-methyl-1-oxobutoxy]ethyl]octahydro-5,6-dimethylspiro[naphthalene-1(2H),2′-oxiran]-4-yl ester, (2E)-	439.15	
1226-22-8	Garbanzol	480.65	
1226-23-9	4′-Chloro-2,4-dinitrodiphenylamine	439.15	
12261-46-0	(2-Carboxyethyl)ferrocene	389.65	
122631-40-7	2-Methyl-3-[(1E)-2-nitroethenyl]-1H-indole	469.15	
122631-41-8	1,2-Dimethyl-3-[(1E)-2-nitroethenyl]-1H-indole	443.15	
122665-86-5	Ethyl 3-(cyanomethyl)-3,4-dihydro-4-oxo-1-phthalazineacetate	386.65	
122684-35-9	1,1-Dimethylethyl 3-(aminothioxomethyl)-1-pyrrolidinecarboxylate	405.15	
122686-30-0	2-[(1,1-Dimethylethyl)amino]-4-oxazolecarbonitrile	352.65	
1227-47-0	Piperidine, 1,1′-(dithiodipropylene)di-, dihydrochloride	513.15	
1227-49-2	3,3′-Dithiobis[benzoic acid]	519.15	
122742-19-2	(3α,4β,5β,7α,12α)-3,4,7,12-Tetrahydroxycholan-24-oic acid	424.15	
122750-25-8	6-Chloro-1-methylisatin	450.65	
1227694-88-3	N-[3-[(2E)-3-(Dimethylamino)-1-oxo-2-propen-1-yl]phenyl]-N-methylacetamide	415.15	
122772-22-9	5-(3,4-Dimethoxyphenyl)-2,4-dihydro-4-(4-methylphenyl)-3H-1,2,4-triazole-3-thione	423.15	
122775-20-6	Acetamide-N,N,2,2-d4, 2-chloro-	389.65	
1227927-22-1	2,3-Dihydro-3,3-dimethyloxazolo[3,2-b]indazole	367.65	
122799-96-6	Ethyl 3-amino-1-propyl-1H-pyrazole-4-carboxylate	308.65	
122799-99-9	Ethyl 3-amino-1-hexyl-1H-pyrazole-4-carboxylate	322.15	
1228-72-4	17-Epiestriol	387.65	
122828-62-0	2-Azulenepropanol	337.65	
122834-40-6	5-Bromo-1-(2-methyl-2-propen-1-yl)-1H-indole-2,3-dione	370.65	
122835-46-5	5-Acetyl-2-hydroxy-4-phenyl-3-thiophenecarbonitrile	468.15	
122852-43-1	1H-Pyrido[4,3-b]indol-1-one, 2,3,4,5-tetrahydro-5-methyl-2-[(5-methyl-1H-imidazol-4-yl)methyl]-, (2Z)-2-butenedioate (1:1)	434.15	
122852-75-9	2,3,4,5-Tetrahydro-5-methyl-1H-pyrido[4,3-b]indol-1-one	509.15	
1228600-98-3	(1S)-5,5′,6,6′,7,7′,8,8′-Octahydro-3,3′-bis[4-(trifluoromethyl)phenyl][1,1′-binaphthalene]-2,2′-diol	521.15	
1228675-23-7	2-(1,1-Dimethylethyl) 5-(9H-fluoren-9-ylmethyl) 2,5-diazabicyclo[4.1.0]heptane-2,5-dicarboxylate	327.15	
122898-67-3	Itopride	382.9	
1229-33-0	(16β)-3-Methoxyestra-1,3,5(10)-trien-16-ol	405.4	
1229043-19-9	Methyl 4,5-dihydro-2-methyl-4-oxo-3-furancarboxylate	383.65	
1229666-21-0	4-Ethoxy-3-pyridinesulfonamide	452.65	
122970-17-6	3-Amino-2-methyl-4-pyridinecarboxylic acid	498.775	
1229705-32-1	3-Azetidinol, 3-(2H-tetrazol-5-yl)-, hydrochloride (1:1)	447.15	
123040-75-5	Methyl 6-chloro-3,4-dihydro-3-oxo-2H-1,4-benzoxazine-8-carboxylate	513.15	
123040-79-9	6-Chloro-3,4-dihydro-4-methyl-3-oxo-2H-1,4-benzoxazine-8-carboxylic acid	515.15	
123088-60-8	Boronic acid, [2-[(methylsulfonyl)methyl]phenyl]-	408.15	
1231-82-9	11-Oxoandrosterone	423.65	
123122-61-2	4,4-Dimethyl-1,2-pentanediol		368.15
123123-32-0	Bullatacin	350.65	
123154-43-8	(-)-Minquartynoic acid	367.65	
123158-75-8	4-Chloro-2-iodo-6-nitrobenzenamine	410.65	
123158-76-9	1-Chloro-3-iodo-5-nitrobenzene	343.55	
123194-05-8	Cyclohexanemethanamine, 1-amino-, hydrochloride (1:2)	394.15	
1232-73-1	16α-Hydroxy-DHEA	457.15	
123278-08-0	3-Iodo-2,6-dimethylbenzoic acid	389.15	
1232815-50-7	2-(Methylthio)pyrrolo[2,1-f][1,2,4]triazin-4(1H)-one	553.15	
123297-90-5	5-Hydroxy-2-[(1S)-1-hydroxyethyl]naphtho[2,3-b]furan-4,9-dione	444.65	
1233-53-0	Bunamiodyl	385.65	
123316-63-2	4′-O-Methylxanthohumol	425.65	
123366-50-7	1-Ethyl-5-iodo-1H-tetrazole	354.9	
123367-25-9	(2E)-3-(Dimethylamino)-1-(2-pyridinyl)-2-propen-1-one	383.15	
123367-27-1	(2E)-3-(Dimethylamino)-1-(4-pyridinyl)-2-propen-1-one	387.15	
123372-74-7	4-O-Caffeoylquinic acid methyl ester	388.65	
1233749-23-9	1-(2-Fluorophenyl)-3,4-dihydro-6,7-dimethoxy-1H-2-benzopyran	355.65	
123380-87-0	Methyl 6-methoxy-1H-indole-3-acetate	365.15	
1233967-22-0	1-(2-Amino-5-bromophenyl)-2,2,2-trifluoroethanone	373.65	
1233967-23-1	1-(2-Amino-5-hydroxyphenyl)-2,2,2-trifluoroethanone	381.65	
1234-31-7	4-[[3-Chloro-4-(1-oxopropyl)phenoxy]methyl]benzoic acid	427.15	
123402-21-1	3′-Deoxy-3′-fluoroguanosine	563.15	
123405-67-4	5-Hexadecyl-5,6-dihydro-1,3-dithiolo[4,5-b][1,4]dithiin-2-thione	338.65	
123413-87-6	4,6-Diphenyl-2-(2-propen-1-ylthio)-3-pyridinecarbonitrile	377.15	
123417-19-6	4-(9H-Fluoren-9-ylmethyl) hydrogen N-[(1,1-dimethylethoxy)carbonyl]-D-aspartate	410.65	
1234616-70-6	6-Bromo-2,4-dichloropyrido[2,3-d]pyrimidine	449.65	
123471-45-4	Ethyl 2-(methylthio)-3-indolizinecarboxylate	319.15	
123476-71-1	3-(4-Chlorophenyl)-4-phenyl-5(4H)-isoxazolone	427.15	
1235-76-3	(1S,4aS,5R,8aS)-5-[2-(3-Furanyl)ethyl]decahydro-1,4a-dimethyl-6-methylene-1-naphthalenecarboxylic acid	369.15	
1235-97-8	Ethyltestosterone	422.15	
123506-69-4	3-Methoxy-4-methyl-2-pyridinecarboxaldehyde	316.4	
123506-71-8	6-Methoxy-3,5-dimethyl-2-pyridinecarboxaldehyde	358.15	
123524-53-8	[1,1′-Binaphthalene]-4,4′-dicarboxylic acid	622.65	
123529-83-9	2-(4-Chlorophenoxy)-1-(2-thioxo-3-thiazolidinyl)ethanone	404.15	
123530-68-7	2-Propenoic acid, 3-(1H-pyrrolo[2,3-b]pyridin-3-yl)-, (E)-	492.65	
1235406-42-4	1,1-Dimethylethyl N-4-thiazolylcarbamate	427.15	
123548-57-2	N,N′-(2-Chloro-5-cyano-1,3-phenylene)bis[2-hydroxyacetamide]	501.15	
123551-49-5	5-Chloro-2,4-dimethoxypyrimidine	345.65	
123557-91-5	5,7-Bis(1,1-dimethylethyl)-3-hydroxy-3-(trifluoromethyl)-2(3H)-benzofuranone	356.15	
1236-00-6	10β-Hydroxy-19-norethisterone	536.65	
123612-50-0	2-Butyl-1,2-dihydroquinoline		434.15
123629-51-6	1,1,1,2,2,3,3,10,10,11,11,12,12,12-Tetradecafluoro-4,4,9,9-tetrakis(trifluoromethyl)dodecane	312.15	
123656-35-9	2,3-Dihydro-2,2-dimethyl-4-benzofurancarboxylic acid	448.15	
123708-42-9	N,N-Diethyl-2,1,3-benzothiadiazole-4-sulfonamide	367.65	
123730-75-6	2-Bromo-6-hydroxy-9H-xanthen-9-one	573.15	
123784-08-7	2-(4-Bromo-2-thienyl)pyridine	331.65	
123811-74-5	2-Pyridinecarboxylic acid, 4-methoxy-, hydrochloride (1:1)	422.15	
123811-75-6	2-Pyridinecarboxylic acid, 4-(1,1-dimethylethyl)-, hydrochloride (1:1)	481.65	
123846-67-3	3-Methyl-5-nitro-2-pyridineacetonitrile	415.65	
123846-70-8	1,1-Dimethylethyl α-cyano-3-nitro-2-pyridineacetate	356.65	
123863-99-0	9,9-Dioctyl-9H-fluorene	300.65	
123875-21-8	3-Chloro-5H-[1]benzopyrano[4,3-c]pyridazine	481.15	
123910-87-2	Methyl 4-(5-hydroxy-1-pentyn-1-yl)benzoate	342.15	
123940-54-5	Hypocrellin B	535.15	
123950-44-7	3,5-Difluoro-4-(trifluoromethyl)benzenamine	335.15	
123970-62-7	2-(4-Methoxyphenyl)-4-thiazolamine	386.65	
123973-49-9	N-(5,6,7,8-Tetrahydro-7,7-dimethyl-4-oxo-4H-thiazolo[5,4-c]azepin-2-yl)acetamide	561.65	
123980-55-2	8-Bromo-7-hexyl-3,7-dihydro-3-methyl-1H-purine-2,6-dione	424.15	
1239969-36-8	2-Fluoro-N-phenyl-4-pyridinamine	422.15	
124-96-9	1,2,3,4,10,10-Hexachloro-1,4,4a,5,8,8a-hexahydro-1,4:5,8-dimethanonaphthalene	374.65	
1240045-43-5	2-Bromo-5-iodo-1H-indole	354.15	
124005-88-5	5-Phenyl-4-oxazolamine	390.65	
124009-64-9	α-(1,1-Dimethylethyl)-3-pyridinemethanol	355.15	
124020-39-9	(3aR,4aS,6aS,7S,9aS,9bR)-5,6,6a,7,9a,9b-Hexahydro-1,4a,7-trimethyl-3H-oxireno[8,8a]azuleno[4,5-b]furan-3,8(4aH)-dione	440.65	
124027-47-0	Velnacrine	518.15	
124027-58-3	Kobophenol A	507.4	
124033-35-8	5,6-Dichloro-3-(2-oxopropyl)-1(3H)-isobenzofuranone	407.15	
124041-01-6	4-Chloro-6-(4-fluorophenoxy)pyrimidine	349.15	
124043-91-0	1-(2-Hydroxy-1-methyl-1H-indol-3-yl)ethanone	383.65	
124052-10-4	Silane, bis(benzo[b]thien-2-yl)dimethyl-	356.15	
124068-98-0	4-Chlorophenyl N-(phenylmethyl)carbamate	411.15	
1242-56-4	Stenbolone acetate	429.65	
1242-81-5	6-(6-Methoxy-1,3-benzodioxol-5-yl)-5H-furo[3,2-g][1]benzopyran-5-one	515.15	
1242069-42-6	1-(Phenylmethyl)-1H-benzotriazole-6-carbonitrile	346.15	
124222-05-5	4-Methylene-1,3-dioxolan-2-one	301.65	
124276-38-6	1-(1-Naphthalenyl)cyclopropanecarboxylic acid	461.15	
124289-23-2	3-(Bromomethyl)-5-methylbenzonitrile	360.65	