CAS	name	Tm	Tb
141846-57-3	α-L-erythro-Pentofuranosyl chloride, 2-deoxy-, 3,5-bis(4-methylbenzoate)	392.65	
14185-62-7	N-[(1-Naphthalenylamino)thioxomethyl]acetamide	478.15	
141854-31-1	5-Chloro-3-methoxy-6-methyl-2H-1,4-oxazin-2-one	340.15	
14189-82-3	3-(Methylphenylamino)-2-propenal	439.15	
14192-71-3	N-[4-(1-Piperidinyl)phenyl]acetamide	425.3	
141940-37-6	1,1-Dimethylethyl N-[4-(trifluoromethyl)phenyl]carbamate	396.65	
1420-91-3	2,4,8,10-Tetraoxaspiro[5.5]undecane-3,9-dicarboxylic acid	507.4	
142010-52-4	3-(Nitroamino)-2(1H)-pyridinone	446.15	
14202-25-6	Methyl all-trans-9,12,15-octadecatrienoate	269.65	
14205-58-4	1-Propanol, 3-bromo-2,2-bis(bromomethyl)-, 1-benzenesulfonate	353.9	
14206-69-0	Benzoic acid, 3-amino-5-hydroxy-, hydrochloride (1:1)	543.65	
14207-31-9	4-Bromo-2,5-dimethylbenzenesulfonamide	478.15	
14208-44-7	Benzamide, 2,2′-dithiobis[3-methyl-	463.65	
1421-19-8	2,3-Dihydro-1H-pyrrolo[1,2-a]indole	350.65	
1421-65-4	L-Dopa methyl ester hydrochloride	443.65	
14210-51-6	2-(1H-Tetrazol-1-yl)benzenamine	371.65	
14213-10-6	1-(3-Nitrophenyl)-1H-tetrazole	439.15	
14213-11-7	1-(4-Nitrophenyl)-1H-tetrazole	463.15	
14215-86-2	(-)-Sweroside	372.15	
14215-95-3	9H-Purin-6-amine, 9-β-D-xylofuranosyl-, 1-oxide	518.15	
14217-67-5	3-Chloro-5-methylisothiazole	323.15	
1422-54-4	1-Bromo-3-fluoro-2-methylbenzene		451.65
14223-24-6	Methyl 3-[(4-bromophenyl)sulfonyl]propanoate	350.65	
14225-75-3	6-Chloro-2-(2-chlorophenyl)-1H-benzimidazole	406.15	
14225-76-4	2-(2-Chlorophenyl)-6-methyl-1H-benzimidazole	408.4	
14226-18-7	Glycyrrhetol	526.15	
1423-62-7	3,5-Dibromobenzo[b]thiophene	371.65	
1423-64-9	1-(5-Bromobenzo[b]thien-2-yl)ethanone	385.65	
142314-70-3	Methyl 2-formyl-6-nitrobenzoate	368.4	
14233-28-4	1-Bromo-4-(cyclohexylamino)-9,10-anthracenedione	426.4	
14233-44-4	N,N-Dimethyl-5-nitro-2-pyrimidinamine	495.4	
1424-09-5	(16β)-16-Methylpregn-4-ene-3,20-dione	476.15	
1424-74-4	3-Hydroxybenzenepropanol	388.15	
142437-69-2	N-[2-(4-Nitrophenyl)ethyl]benzamide	435.15	
142449-75-0	Carbonimidodithioic acid, N-[(1-methoxy-1H-indol-3-yl)carbonyl]-, dimethyl ester	345.15	
142451-97-6	2-Chloro-4-iodo-6-methoxypyrimidine	382.15	
14246-55-0	N-Myristoylglycine	394.65	
14246-80-1	4-Cyclohexene-1,2-dicarboxylic acid, 1,2-dihydrazide	483.15	
14247-05-3	Methanimidic acid, N-[3-cyano-1,2,5,6-tetrahydro-1-(phenylmethyl)-4-pyridinyl]-	346.65	
14248-72-7	N-(1-Oxido-4-pyridinyl)benzamide	529.15	
14250-52-3	1-Chloro-5,6,7,8-tetrahydrophthalazine	391.65	
142503-29-5	3-[(Dimethylamino)methylene]-1,1,1,5,5,5-hexafluoro-2,4-pentanedione	328.15	
14255-93-7	N-(2-Ethoxyphenyl)-N′-2-propen-1-ylthiourea	369.65	
14257-69-3	β-D-Glucosamine	383.15	
14259-58-6	5′-Deoxy-5′-iodouridine	458.15	
14259-65-5	N,N′-Bis(trichlorophosphoranylidene)sulfamide	313.5	
1426-59-1	6-Chloro-9-(2,3-di-O-acetyl-5-deoxy-5-fluoro-β-D-ribofuranosyl)-9H-purine	395.15	
142602-43-5	4-Bromo-2-(phenylmethoxy)benzaldehyde	381.65	
14261-91-7	1,2,3,6,7,7a-Hexahydro-2-(4-methylphenyl)-1-oxo-3a,6-epoxy-3aH-isoindole-7-carboxylic acid	456.65	
1427-08-3	N-(5-Fluoro-3-nitro-9H-fluoren-2-yl)acetamide	516.65	
14272-48-1	2-Ethoxyethyl propionate		443.15
142763-11-9	(4S)-4-[(3,4-Dimethoxyphenyl)methyl]-2-oxazolidinone	365.65	
14278-50-3	3,4-Dihydro-2H-pyran-2,2-dimethanol	324.65	
14279-86-8	Guanidine, N-(3-methyl-2-buten-1-yl)-, sulfate (2:1)	490.15	
142796-22-3	Isosilybin B	468.15	
142808-53-5	3,5-Bis[(4-hydroxyphenyl)methylene]-1-methyl-4-piperidinone	471.15	
142810-19-3	N-[(9H-Fluoren-9-ylmethoxy)carbonyl]-L-valylglycine	447.15	
14282-59-8	3,4-Thiophenediol	363.9	
14282-62-3	2,5-Thiophenedimethanethiol		394.15
14282-65-6	4-(Hydroxymethyl)-2-thiophenecarboxylic acid	389.15	
142857-24-7	4-Benzoylphenyl dodecanoate	321.65	
14287-99-1	N1,N1,N3,N3-Tetrakis(2-methylpropyl)propanediamide	549.15	
142874-81-5	2,3-Dihydro-2,2,4,6,7-pentamethylbenzofuran	318.15	
14289-34-0	L,L-Diaminopimelic acid	583.65	
14289-44-2	2-Naphthylglycolic acid	417.15	
14290-57-4	3′,5-Dihydroxy-3,4′,5′,7-tetramethoxyflavone	423.15	
142905-27-9	Koetjapic acid	581.65	
142910-86-9	N,N-Dimethyl-1H-indazole-3-methanamine	398.65	
14292-26-3	(±)-3-Hydroxydecanoic acid	320.65	
14292-27-4	3-Hydroxyoctanoic acid	311.4	
142924-31-0	Ethyl 4,6-O-[(R)-phenylmethylene]-1-thio-α-D-mannopyranoside	444.15	
14294-10-1	4-Morpholinecarbothioamide	385.15	
14297-34-8	2-(4-Bromophenyl)furan	358.65	
14300-67-5	3-(Hydroxymethyl)-2-thiophenecarboxylic acid	386.65	
14304-27-9	1-Penten-4-yn-3-ol		402.15
14305-22-7	Germane, chloroethyl-	363.65	363.65
14305-32-9	N-(1-Oxodecyl)glycine	387.15	
14313-60-1	6-Chloro-2,1-benzisoxazole	334.9	
14316-14-4	N-(2-Hydroxyethyl)-4-methylbenzenesulfonamide	329.15	
14316-16-6	N-(2-Aminoethyl)-4-methylbenzenesulfonamide	396.65	
14316-61-1	Acetic acid, 2-phenoxy-, 1,1′-anhydride	340.65	
1432-45-7	N-Acetyl-2-propenamide	373.65	
14320-58-2	α-(2-Methylpropyl)benzeneacetic acid	351.65	
143232-64-8	7,8-Dihydro-2-(phenylmethoxy)-5(6H)-quinolinone	354.15	
14325-49-6	5-(Mercaptomethyl)-2-thiophenecarboxylic acid	408.65	
14328-51-9	(αS)-α-Aminocyclohexaneacetic acid	528.15	
14328-62-2	Cyclopentaneacetic acid, α-amino-, methyl ester, hydrochloride (1:1), (αS)-	451.15	
14328-64-4	Cyclohexaneacetic acid, α-amino-, methyl ester, hydrochloride (1:1), (αR)-	463.65	
14331-27-2	Benzoic acid, 2-acetylhydrazide	442.65	
14331-64-7	3,4-Diphenyl-4H-1,2,4-triazole	382.15	
14332-17-3	(1S,4S,5R)-1-(β-D-Glucopyranosyloxy)-4,5-dihydroxy-2-cyclopentene-1-carbonitrile	438.65	
14338-36-4	(3-Aminophenyl)acetic acid	424.15	
143393-27-5	4-[[[(2S,4S)-2-[2-(4-Chlorophenyl)ethyl]-2-(1H-imidazol-1-ylmethyl)-1,3-dioxolan-4-yl]methyl]thio]benzenamine	424.15	
14340-04-6	17-(Acetyloxy)-19-norpregna-4,9-diene-3,20-dione	392.15	
14340-33-1	1-Nitroso-4-phenylpiperazine	339.65	
14341-87-8	Glutamic-2,3,3,4,4-d5 acid, N-acetyl-, D-	466.4	
143413-84-7	TOTO 1	554.15	
14344-46-8	L-Cysteine, N-methyl-, hydrochloride (1:1)	402.15	
14344-48-0	L,L-Ethylenedicysteine	536.15	
14347-05-8	1-[3-Nitro-4-(phenylmethoxy)phenyl]ethanone	408.15	
14347-74-1	2-Hexyl-4-thiazolidinecarboxylic acid	421.65	
14348-23-3	4,9-Dihydroxy-7H-furo[3,2-g][1]benzopyran-7-one	541.15	
1435-54-7	1,3-Dibromo-2-fluorobenzene	326.15	
143502-37-8	7-Methoxy-1,9-dimethyl-9H-pyrido[3,4-b]indole	395.15	
14351-28-1	Dammarenediol I	356.65	
14351-29-2	Dammarenediol	404.65	
143543-83-3	1-(4-Chlorophenyl)-2-[(4,5-dihydro-2-thiazolyl)thio]ethanone	360.65	
1436-61-9	rel-Ethyl (1R,2R)-2-aminocyclohexanecarboxylate	547.15	
143606-53-5	Butanedioic acid, polymer with 1,4-butanediol and 1,6-diisocyanatohexane	383.15	
143696-74-6	2-(2,4-Dichlorophenyl)imidazo[1,2-a]pyrimidine	552.15	
1437-90-7	5-Methyl-2-thiazolidinethione	367.15	
1437-99-6	3-Phenyl-2-thiazolidinethione	406.65	
14371-87-0	3-Propylproline	475.65	
14372-44-2	2-Bromo-N-(2-oxo-2-phenylethyl)acetamide	421.15	
14379-57-8	N-(1-Oxododecyl)-L-threonine	334.15	
14379-78-3	Benzoic acid, 2-[(3-nitrophenyl)methylene]hydrazide	470.15	
1438-46-6	N-(1,1-Dimethylethyl)-2-thiazolamine	372.65	
14383-07-4	1H-[1,3]Dioxolo[4,5-j]pyrrolo[3,2,1-de]phenanthridin-1-ol, 2,4,5,7,12b,12c-hexahydro-, 1-acetate, (1R,12bS,12cS)-	458.15	
14383-43-8	3,6-Dihydro-2,6-dioxo-1(2H)-pyrimidineacetic acid	558.15	
14384-34-0	2,3,4,9-Tetrahydro-1H-carbazol-3-ol	422.65	
14384-47-5	Pyrazine, 2,3-dihydro-2,2,3,3,5,6-hexamethyl-, 1,4-dioxide	409.65	
14384-67-9	2-(4-Phenyl-2-thiazolyl)pyridine	345.9	
14384-69-1	2-(4-Methyl-2-thiazolyl)pyridine	357.15	
14385-53-6	2-Phenylnaphtho[1,2-b]furan	362.15	
14385-63-8	3-(2-Furanyl)-1-(4-methylphenyl)-2-propen-1-one	424.15	
14387-31-6	1,1′-Dimethyl 4,4′-thiobis[benzoate]	400.15	
14389-10-7	4-(2H-Tetrazol-5-yl)benzonitrile	532.15	
14389-13-0	5-Propyl-2H-tetrazole	337.65	
14389-86-7	2-(Benzyloxy)benzoic acid	350.15	
14389-87-8	Phenylmethyl 2-(phenylmethoxy)benzoate	323.65	
14389-99-2	Methyl 2-cyano-2-(tetrahydro-2,2-dimethyl-4H-pyran-4-ylidene)acetate	401.65	
1439-10-7	4-Amino-5-bromopyrimidine	482.15	
143901-35-3	Methyl (1R,2R,3S,3aR,8bS)-2,3,3a,8b-tetrahydro-1,8b-dihydroxy-6,8-dimethoxy-3a-(4-methoxyphenyl)-3-phenyl-1H-cyclopenta[b]benzofuran-2-carboxylate	365.65	
14392-72-4	1-(4-Hydroxyphenyl)-1-heptanone	366.65	
14394-60-6	2-Chloro-6-methyl-4-pyrimidinamine	488.15	
14395-85-8	5-Methyl-2-(methylthio)-1H-imidazole	355.15	
14396-90-8	N-(3-Butynyl)phthalimide	406.65	
143982-40-5	Imidazo[1,2-a]pyrimidine-2-carboxaldehyde	483.15	
14399-37-2	3,6-Dichloro-2-pyrazinamine	413.65	
1440-62-6	Morpholine, 4-(4-morpholinylacetyl)-	348.15	
14400-96-5	(+)-Armepavine	417.65	
14401-58-2	2-Ethyl-3,4,5-trimethoxyphenol	368.4	
14401-75-3	1-(3,5-Dinitrophenyl)ethanone	348.15	
14401-98-0	3,5-Dinitro-N-(phenylmethyl)benzamide	474.15	
14401-99-1	3,5-Dinitro-N-(2-phenylethyl)benzamide	423.15	
144026-79-9	Scandium triflate	282.15	
14404-35-4	Bis[4-(imino-κN)-2-pentanonato-κO]copper	464.15	
144072-30-0	1,1-Dimethylethyl N-(4-formylphenyl)carbamate	404.15	
14408-07-2	2,5-Dichloro-N-[(2,5-dichlorophenyl)sulfonyl]benzenesulfonamide	574.15	
1441-89-0	S-Phenyl 2-thiocyanatobenzenecarbothioate	396.15	
1441-98-1	1-[2-(Methylseleno)phenyl]ethanone	321.15	
144104-45-0	5-(2-Methoxyphenyl)-1H-indole	369.15	
144120-54-7	1-(2-Propen-1-yl) hydrogen N-[(9H-fluoren-9-ylmethoxy)carbonyl]-L-glutamate	391.65	
14414-68-7	[1,1′-Biphenyl]-4,4′-diamine, hydrochloride (1:?)	397.15	
14417-51-7	Mannobiose	473.65	
14417-89-1	2-[(Cyclohexylideneamino)oxy]acetic acid	366.15	
144171-61-9	(±)-Indoxacarb	413.65	
144172-24-7	1H-Indene-2-carboxylic acid, 5-chloro-2,3-dihydro-2-hydroxy-1-oxo-, methyl ester	405.65	
144189-77-5	Benzoxazolium, 3-(carboxymethyl)-2-methyl-, bromide (1:1)	509.65	
14422-50-5	5-Chloro-2-[(2-chloroacetyl)amino]benzoic acid	488.9	
144223-30-3	1H-Benzotriazol-1-yl-3-pyridinylmethanone	388.15	
144223-32-5	1H-Benzotriazol-1-yl-1H-pyrrol-2-ylmethanone	433.15	
144223-33-6	1-(2-Furoyl)benzotriazole	445.15	
14423-79-1	4-Amino-N-(3-chloro-2-pyrazinyl)benzenesulfonamide	430.15	
14432-13-4	2-Chloro-N-nitro-4-pyridinamine	421.15	
14440-56-3	2,3:5,6-Di-O-isopropylidene-D-mannono-1,4-lactone	397.65	
14440-98-3	Cbz-DL-β-phenylalanine	399.9	
14441-94-2	4-Methoxy-2-oxazolidinone	338.15	
14444-81-6	2-[[(4-Methoxy-2-nitrophenyl)methyl]thio]acetic acid	352.9	
14446-73-2	4-Cyclohexylpiperidine	349.65	
1445-07-4	Pseudouridine	495.15	
1445-52-9	3-Chloro-6-methyl-4-pyridazinemethanol	453.15	
1445-54-1	Ethyl 3-chloro-4-pyridazinecarboxylate	322.15	
1445-55-2	Ethyl 2,3-dihydro-3-oxo-4-pyridazinecarboxylate	472.65	
1445-56-3	3-Chloropyridazine-4-carbonitrile	314.65	
1445-58-5	6-Mercapto-3(2H)-pyridazinethione	510.15	
14451-86-6	2-Butyltricyclo[3.3.1.13,7]decan-2-ol	346.15	
144528-15-4	Benzothiazole, 2-[2-(4-fluorophenyl)ethenyl]-, (E)-	433.65	
14453-89-5	1-[4-[(4-Aminophenyl)thio]phenyl]ethanone	421.9	
144606-96-2	(3S,5aR,10bR,11aS)-6-Acetyl-10b-(1,1-dimethyl-2-propen-1-yl)-6,10b,11,11a-tetrahydro-3-(phenylmethyl)-2H-pyrazino[1′,2′:1,5]pyrrolo[2,3-b]indole-1,4(3H,5aH)-dione	357.15	
14464-31-4	Palmitic acid N-hydroxysuccinimide	364.15	
14464-32-5	Stearic acid N-hydroxysuccinimide ester	366.15	
144689-94-1	1H-Imidazole-4,5-dicarboxylic acid, 2-propyl-, 4,5-diethyl ester	357.15	
144690-33-5	Ethyl 4-(1-hydroxy-1-methylethyl)-2-propyl-1-[[2′-[1-(triphenylmethyl)-1H-tetrazol-5-yl][1,1′-biphenyl]-4-yl]methyl]-1H-imidazole-5-carboxylate	434.15	
14473-91-7	(2E)-3-(3-Bromophenyl)-2-propenoic acid	447.15	
1448-40-4	5,6,7,8-Tetrahydro-2-methyl-6-(phenylmethyl)pyrido[4,3-d]pyrimidin-4(3H)-one	469.15	
1448-96-0	(2R,3S)-Tetrahydro-4-methylene-5-oxo-2-tridecyl-3-furancarboxylic acid	377.65	
14482-28-1	1-(Phenylthio)methanesulfonamide	375.15	
14484-83-4	1,2,3-Oxadiazolium, 4-formyl-5-hydroxy-3-phenyl-, inner salt	378.15	
144850-45-3	(1E)-1-(1,3-Benzodioxol-5-yl)-4,4-dimethyl-1-penten-3-one	366.65	
1449-07-6	(4aR,6aS,9aR,13aR,13bS,15aS,15bR)-4a,5,6,6a,7,9,9a,10,12,13,13a,13b,14,15,15a,15b-Hexadecahydro-4,4,6a,10,10,13a,15b-heptamethyl-1H-cyclohepta[1,2-a:5,4-a′]dinaphthalene-3,11(2H,4H)-dione	480.15	
1449-09-8	24-Methylenecycloartanol	394.65	
144927-57-1	7H-Pyrrolo[2,3-d]pyrimidine-5-carboxylic acid, 4-chloro-, ethyl ester	413.65	
14497-26-8	α-Ethyl-2-furanacetic acid	323.4	
144981-86-2	2,7-Diiodo-9,9-dimethyl-9H-fluorene	468.15	
144991-54-8	5-Iodo-1,3-dimethyl-2-nitrobenzene	346.4	
1450-76-6	1-(2-Hydroxy-5-nitrophenyl)ethanone	284.65	
1450-80-2	4-Bromopentanoic acid	294.15	
1450-88-0	6-Mercapto-4(3H)-pyrimidinethione	524.15	
1450-94-8	1H-Imidazol-2-amine, 1-methyl-, hydrochloride (1:1)	357.65	
1450-95-9	1H-Imidazol-2-amine, 4,5-dimethyl-, hydrochloride (1:1)	662.15	
14501-65-6	Clausine L	445.65	
14502-46-6	12-Tridecynoic acid	327.65	
145038-53-5	4-Methyl hydrogen N-[(9H-fluoren-9-ylmethoxy)carbonyl]-L-aspartate	396.65	
14504-08-6	2-(Acetyloxy)-5-methylbenzoic acid	414.15	
14504-09-7	2,3,5,5,6,6-Hexachloro-2-cyclohexene-1,4-dione	360.15	
14509-66-1	7,8-Dihydroimidazo[1,5-c]pyrimidin-5(6H)-one	491.65	
14512-86-8	Thiocyanic acid, 4-amino-2-fluorophenyl ester	315.15	
14516-56-4	10H-Phenothiazine, 10-[3-(4-methyl-1-piperazinyl)propyl]-, (2Z)-2-butenedioate (1:2)	483.15	
14517-44-3	Methionylglutamic acid	478.65	
145196-88-9	Carbamimidothioic acid, [2-(4-iodophenyl)ethyl]-, 3-(1H-imidazol-4-yl)propyl ester	497.15	
145250-81-3	1,1-Diamino-2,2-dinitroethylene	511.15	
14529-09-0	Phosphonium, methylenebis[triphenyl-, dibromide	565.65	
1453-89-0	3-(2-Pyridinyloxy)propanoic acid	347.15	
14531-89-6	Methyldienolone	378.15	
145400-02-8	(1R,4S,4aR,6S,8aR)-Decahydro-4,8a-dimethyl-6-(1-methylethyl)-1,4,6-naphthalenetriol	412.65	
145414-76-2	6′,7′-Dihydroxybergamottin	385.65	
14542-16-6	4-Methyl-2-thiazolecarboxylic acid	372.15	
14543-45-4	4-Amino-3-mercaptobenzoic acid	563.15	
145441-17-4	5-Acetyl-3-isoxazolecarboxylic acid	414.65	
145451-97-4	(3S,4R)-3-Hydroxy-2-[(1S)-1-hydroxy-2-methylpropyl]-4-methyl-5-oxo-D-proline	516.15	
14547-76-3	4-Chloro-N-4-pyridinylbenzamide	480.65	
14547-82-1	4-Chloro-N-2-pyridinylbenzamide	403.65	
14548-01-7	Phenanthridine N-oxide	495.15	
145483-64-3	1,4-Bis(hexadecyloxy)-2,5-diiodobenzene	359.65	
1455-82-9	3-Methyl-5-(4-nitrophenyl)-1,2,4-oxadiazole	419.15	
1455-83-0	3-Methyl-5-(5-nitro-2-furanyl)-1,2,4-oxadiazole	357.15	
1455-85-2	3-(3-Methyl-1,2,4-oxadiazol-5-yl)pyridine	375.15	
14552-07-9	(OC-6-11)-Tris(1,3-diphenyl-1,3-propanedionato-κO1,κO3)europium	488.15	
145525-41-3	Mitiglinide calcium	452.15	
145574-17-0	(1S,5R)-2,6-Diazabicyclo[3.2.0]heptan-7-one	421.65	
145588-95-0	1-[(4S)-4-(Phenylmethyl)-2-thioxo-3-oxazolidinyl]-1-propanone	347.65	
145603-76-5	3-[[(1R,4aR,5S,6S,8aR)-6-(Acetyloxy)decahydro-5,8a-dimethyl-2-methylene-5-(4-methyl-3-penten-1-yl)-1-naphthalenyl]methyl]-2-methoxy-5,6-dimethyl-4H-pyran-4-one	418.15	
14561-40-1	rel-(1R,2R)-2-Phenylcyclopropanecarboxylic acid hydrazide	398.4	
14561-55-8	4-Methylglutamic acid	429.65	
14562-09-5	2-Phenyltropone	356.9	
14563-40-7	Methyl 3,4-dimethoxy-γ-oxobenzenebutanoate	360.15	
14569-61-0	1,3-Bis(3-methylphenoxy)-2-propanol	454.15	
14569-62-1	1,3-Bis(4-methylphenoxy)-2-propanol	361.15	
1457-52-9	1-(4-Chlorophenyl)-2-(1H-pyrazol-1-yl)ethanone	427.65	
14572-92-0	4-Aminobenzenepropanol	327.65	
14578-20-2	β-Oxo-α-phenyl-3-pyridinepropanenitrile	491.65	
1458-04-4	3-Amino-6-chloro-2-pyrazinecarboxylic acid 2-(aminoiminomethyl)hydrazide	606.65	
14581-83-0	Helicin, tetraacetate	395	
14581-85-2	β-D-Glucopyranoside, 2-nitrophenyl, 2,3,4,6-tetraacetate	409.15	
14585-15-0	3,5,7-Trimethoxy-2-(2-methoxyphenyl)-4H-1-benzopyran-4-one	442.65	
14586-00-6	2-(4-Nitrophenyl)-N-phenylhydrazinecarboxamide	493.15	
14588-61-5	3,5-Dimethoxy-4-(phenylmethoxy)benzoyl chloride	318.15	
1459-01-4	(2-Iodo-1-methylethyl)benzene	374.15	
1459-95-6	Dimethyl 1,3-adamantanedicarboxylate	334.65	
145915-58-8	4,5-Dianilinophthalimide	473.4	
145934-58-3	3-Bromo-2-methyl-1H-pyrrolo[2,3-b]pyridine	433.65	
145937-21-9	6-Gingesulfonic acid	452.15	
14595-67-6	2-(1H-Benzimidazol-2-yl)benzoxazole	569.65	
14596-56-6	P-[2-(Dimethylamino)ethyl]phosphonic acid	497.15	
14597-13-8	2,5-Dimethyl-3,4-furandicarboxylic acid	498.15	
14597-14-9	3,4-Dimethyl 2,5-dimethyl-3,4-furandicarboxylate	335.65	
14599-48-5	Cycloart-23-ene-3β,25-diol	295.15	
1460-35-1	2-Oxocyclohexaneacetamide	392.15	
1460-49-7	3-Cyclopropylidene-1-phenyl-1,2-propanedione	372.15	
14610-49-2	(7β,17β)-17-(Acetyloxy)-7-methylandrost-4-en-3-one	420.65	
14611-45-1	Ethyl 2,3,5,6-tetramethylbenzeneacetate	321.15	
14615-72-6	3,5-Dibenzyloxybenzaldehyde	353.4	
14617-86-8	p-Nitrophenyl stearate	337.65	
14618-59-8	Carbamic acid, N-(4-methylphenyl)-, 1,1-dimethylethyl ester	365.55	
14618-66-7	2-[(Carboxymethyl)thio]propanoic acid	358.15	
14621-04-6	2,3,4,5,6-Pentafluoro-4′-methyl-1,1′-biphenyl	390.15	
14623-54-2	3-Mercaptopicolinic acid	456.65	
146256-98-6	1-(1,1-Dimethylethyl) 3-ethyl 4-oxo-1,3-pyrrolidinedicarboxylate	327.15	
1463-49-6	2-Methyl-2,8-diazaspiro[4.5]decane-1,3-dione	340.15	
1463-53-2	2,8-Diazaspiro[4.5]decane-1,3-dione, 2-methyl-8-(phenylmethyl)-, hydrochloride (1:1)	528.15	
14630-09-2	Methyl thieno[3,4-b]thiophene-2-carboxylate	338.9	
14631-09-5	4-Chloro-2,5-pyrimidinediamine	533.15	
14631-29-9	N-[5-(1,2-Dithiolan-3-yl)-1-oxopentyl]valine	394.15	
14631-46-0	8-Hydroxy-5,6,7,8-tetrahydroquinoline	337.65	
14631-48-2	5,6,7,8-Tetrahydroquinoline N-oxide	342.15	
14633-22-8	3-(1-Methylethyl)-5-isoxazolecarboxylic acid	348.15	
14633-42-2	1-[(4-Chlorobutyl)sulfonyl]-4-methylbenzene	312.65	
146374-27-8	2-Methyl-2-propanesulfinamide	372.15	
1464-61-5	11α-Hydroxyestradiol	523.65	
14643-77-7	α-Amino-4-methyl-5-thiazolepropanoic acid	513.15	
1465-16-3	3-[2-(Dimethylamino)ethyl]-1-methyl-1H-indol-4-ol	399.15	
1465-19-6	Pyridine, 3-(chloromethyl)-4-methyl-, hydrochloride (1:1)	448.15	
1465-20-9	Carbamic acid, phenyl[1-(2-phenylethyl)-4-piperidinyl]-, ethyl ester	383.45	
14651-45-7	Spiro[2.11]tetradecane-1,1,2,2-tetracarbonitrile	474.15	
14658-96-9	2-Azulenecarboxylic acid, methyl ester	383.65	
1466-08-6	(2E)-2-Methyl-3-[(4R,5S)-1,3,4,5-tetrahydro-4-(methylamino)benz[cd]indol-5-yl]-2-propen-1-ol	447.15	
1466-83-7	Benzoyl-L-leucine	375.65	
14661-69-9	4-Methylbenzenesulfonic acid 2-(2-chloro-2-oxoethylidene)hydrazide	425.15	
14674-89-6	1,2,4,5-Benzenetetracarboxaldehyde	444.15	
14675-45-7	N4,6-Dimethyl-4,5-pyrimidinediamine	598.15	
14675-49-1	5-Amino-6-methyl-4(3H)-pyrimidinone	493.15	
14678-56-9	1,3,5-Trinitro-2-(phenylthio)benzene	393.15	
14678-81-0	1-(2-Methyl-1H-benzimidazol-1-yl)ethanone	358.65	
14678-97-8	1-(4-Chlorophenyl)-1H-pyrazol-5-amine	312.15	
1468-27-5	4-Methyl-N-(tetrahydro-2H-pyran-2-ylidene)benzenesulfonamide	347.15	
1468-43-5	11-[(Aminocarbonyl)amino]undecanoic acid	420.15	
1468-84-4	5,6-Dihydrobenzo[b]thiophen-7(4H)-one	310.15	
146803-42-1	9H-Fluoren-9-ylmethyl N-[(1S)-1-formyl-3-methylbutyl]carbamate	336.15	
146803-43-2	9H-Fluoren-9-ylmethyl N-[(1S)-1-formyl-2-phenylethyl]carbamate	398.15	
14682-46-3	(-)-Gaillardin	471.65	
14684-56-1	2-(Ethylthio)-4(3H)-pteridinone	518.65	
14686-63-6	4-Hydroxyxanthone	517.15	
14686-65-8	1,5-Dihydroxy-9H-xanthen-9-one	539.15	
14686-89-6	1,2:5,6-Bis-O-(1-methylethylidene)-α-D-gulofuranose	378.65	
14691-95-3	1,2,3,6,7,7a-Hexahydro-1-oxo-2-phenyl-3a,6-epoxy-3aH-isoindole-7-carboxylic acid	457.65	
146924-94-9	(3R,4S)-3-Hydroxy-1-(4-methoxyphenyl)-4-phenyl-2-azetidinone	469.65	
14696-22-1	(5α)-3-(Acetyloxy)-4,5-epoxy-17-methylmorphinan-6-one	395.15	
147-64-8	α-Phenyl-1-(phenylmethyl)-1H-benzimidazole-2-methanol	436.15	
1470-42-4	2-(2-Chlorophenyl)-1H-indene-1,3(2H)-dione	409.65	
147025-06-7	Dodecyl 2-(acetylamino)-2-deoxy-β-D-glucopyranoside	439.15	
14703-79-8	3-(Methylamino)-4-nitrophenol	485.15	
14703-85-6	Phenol, 2-amino-5-(dimethylamino)-, hydrochloride (1:2)	503.15	
14704-64-4	4-Amino-6-chloro-3(2H)-pyridazinone	558.15	
147081-49-0	(R)-tert-Butyl 3-aminopyrrolidine-1-carboxylate	332.05	
147086-80-4	4H-Thieno[2,3-b]thiopyran-4-ol, 5,6-dihydro-6-methyl-, (4R-cis)-	371.65	
147118-37-4	N-[4-(4-Fluorophenyl)-5-formyl-6-(1-methylethyl)-2-pyrimidinyl]-N-methylmethanesulfonamide	420.65	
147128-77-6	4H-Thieno[2,3-b]thiopyran-4-ol, 5,6-dihydro-6-methyl-, 7,7-dioxide, (4R,6S)-	427.65	