CAS	name	Tm	Tb
10359-66-7	2-(Propylthio)butane	339.65	427.15
1036-72-2	5,7-Dimethoxyflavanone	416.65	
1036027-54-9	5-(Trifluoromethyl)-1H-pyrrolo[2,3-b]pyridine	377.65	
103610-04-4	JWH 200	379.15	
103628-22-4	1-[4-(2-Chloroethoxy)phenyl]-2-phenyl-1-butanone	342.15	
103629-81-8	2-(1,2-Dihydroxy-1-methylethyl)-2,3-dihydro-4-hydroxy-7-methyl-5H-furo[3,2-g][1]benzopyran-5-one	487.65	
103632-74-2	2-(1-Naphthalenylmethylene)butanedioic acid	455.15	
10364-69-9	5-Ethyl-3-(3-nitrophenyl)-1,2,4-oxadiazole	337.65	337.65
103646-21-5	1,2-Dihydro-2-oxo-3,4-quinolinedicarboxylic acid	577.65	
103646-26-0	8-(Ethylsulfonyl)quinoline	383.65	
1036760-06-1	rel-Ethyl (1R,3S,4R,6S)-4-[[(phenylmethoxy)carbonyl]amino]-7-oxabicyclo[4.1.0]heptane-3-carboxylate	337.65	
10368-07-7	8-Hydroxy-14,16-hentriacontanedione	343.15	
10368-11-3	1,1′-(1,3-Propanediyl)bis[4-nitrobenzene]	413.15	
103686-16-4	(2E)-3-(4-Bromo-2-thienyl)-2-propenoic acid	428.15	
10369-95-6	9-Anthracenol, 9-(N-methylcarbamate)	482.15	
103702-28-9	5-(Bromomethyl)-2(1H)-quinolinone	520.9	
1037072-64-2	3-Methoxy-N,N-dimethyl-5-nitro-1H-indazole-1-ethanamine	347.65	
10371-48-9	4,6-Dichloro-N-ethyl-2-pyrimidinamine	335.65	
103725-47-9	N-[2-(Benzoylthio)acetyl]glycylglycylglycine	467.15	
103733-33-1	1-Isoquinolinecarboxylic acid, 1,2,3,4-tetrahydro-, ethyl ester, hydrochloride (1:1)	408.65	
10374-81-9	[1,1′:3′,1′′-Terphenyl]-4,4′′-dicarboxylic acid, dimethyl ester	463.65	
103748-27-2	2-Nitro-N-(2-phenoxyethyl)benzenamine	353.65	
103755-52-8	Quinoline, 6-hydrazinyl-, hydrochloride (1:2)	492.65	
10376-48-4	Shionone	432.15	
10376-50-8	3-O-Acetylbetulinic acid	564.15	
103766-25-2	Gimeracil	540.65	
103788-61-0	4-(Chloromethyl)-5-methyl-2-phenyl-1,3-oxazole	355.15	
103790-38-1	Methyl 3-(4-aminophenoxy)-2-thiophenecarboxylate	375.65	
103790-47-2	1,1-Dimethylethyl 4-nitrobenzenepropanoate	326.65	
103796-14-1	N-[3-(Acetyloxy)-4-methylphenyl]acetamide	405.15	
1038-81-9	2-[3-Ethyl-5-(4-methoxyphenyl)-1H-pyrazol-4-yl]phenol	427.65	
10381-82-5	8-Bromo-3,7-dihydro-1,3,7-trimethyl-1H-purine-2,6-dione	479.15	
103853-89-0	4-[(4-Methoxyphenyl)methylene]-2,5-thiazolidinedione	441.15	
103854-63-3	4-(4-Pyridinyloxy)phenol	457.15	
103854-64-4	8-Methoxyquinoline-2-carboxaldehyde	375.15	
103856-59-3	5-Methyl-2-quinolinecarboxylic acid	384.15	
103857-06-3	3-(Dimethylamino)-1-(1-hydroxycyclohexyl)-1-propanone	337.15	
103857-61-0	2-(2-Chlorobenzyl)succinic acid	430.8	
103858-39-5	N-[(2,5-Dimethylphenyl)methyl]acetamide	353.15	
103858-48-6	2-Bromo-4,7-dimethylquinoline	310.65	
10386-91-1	N-(4-Methylphenyl)-N-phenylformamide	359.9	
103863-14-5	4-Phenyl-3-pyridinecarboxylic acid	422.15	
103863-15-6	3-Phenyl-2-pyridinecarboxylic acid	404.4	
10387-49-2	7-Acetoxycoumarin	415.15	
10387-50-5	O-Prenylumbelliferone	343.65	
10390-14-4	2β-Hydroxytestosterone	436.65	
103900-78-3	Methyl 1,6-dihydro-4-hydroxy-6-oxo-2-(trifluoromethyl)-3-pyridinecarboxylate	509.9	
103905-85-7	2-(3,4-Dichlorophenoxy)-2-methylpropanoic acid	345.15	
103907-11-5	3-Quinolinecarboxylic acid, 2-methyl-, hydrochloride (1:1)	458.15	
10391-09-0	Nodosin (terpene)	548.15	
10392-74-2	Pregna-1,4-diene-3,20-dione, 9-chloro-11,21-dihydroxy-16,17-[(1-methylethylidene)bis(oxy)]-, (11β,16α)-	555.65	
10392-75-3	Pregna-1,4-diene-3,20-dione, 21-(acetyloxy)-9-chloro-11-hydroxy-16,17-[(1-methylethylidene)bis(oxy)]-, (11β,16α)-	521.15	
10394-42-0	6-Methoxy-1-methyl-1H-benzimidazole	340.65	
10394-67-9	Benzoic acid, 3-amino-5-nitro-, ethyl ester	428.65	
1039431-94-1	(3aS,3′aS,6aR,6′aR,7′aS,8′R,9aR,9bS,10′aS,10′bS,10′cS)-Eicosahydro-7′a,10′a-dihydroxy-3,3′,6,6′-tetrakis(methylene)spiro[azuleno[4,5-b]furan-9(2H),8′-[8H]cyclopent[2,3]azuleno[4,5-b]furan]-2,2′,8(3H,3′H)-trione	497.15	
103946-54-9	4′-Methyl[2,2′-bipyridine]-4-carboxylic acid	553.15	
103956-07-6	N,N′-1,6-Hexanediylbis[2-aminobenzamide]	449.65	
103963-71-9	2-Hydroxydecanedioic acid	392.65	
10397-13-4	4-(4,6-Dichloropyrimidin-2-yl)morpholine	379.9	
103974-74-9	Esculentic acid	544.15	
1039766-71-6	Methyl 4,5,6,7-tetrahydro-4-oxo[1,2,3]triazolo[1,5-a]pyrazine-3-carboxylate	497.15	
103987-82-2	4-[(4-Oxo-2-thioxo-5-thiazolidinylidene)methyl]benzoic acid	580.65	
103987-83-3	1-Nitro-2-naphthalenecarboxylic acid	519.15	
103987-84-4	2-(7-Isoquinolinylmethylene)hydrazinecarboxamide	526.65	
103989-05-5	2-(4-Methoxy-3-methylphenyl)-2-oxoethyl thiocyanate	398.15	
103994-99-6	6,7-Difluoro-1-(4-fluorophenyl)-1,4-dihydro-4-oxo-3-quinolinecarboxylic acid	532.15	
103995-01-3	1-(2,4-Difluorophenyl)-6,7-difluoro-1,4-dihydro-4-oxo-3-quinolinecarboxylic acid	513.15	
104-17-6	4-[(2-Methylpropyl)amino]phenol	348.15	
104-48-3	N-Ethyl-4-methoxybenzenamine		410.65
10401-33-9	Olean-12-en-29-oic acid, 3,22-dihydroxy-11-oxo-, γ-lactone, (3β,20β,22β)-	635.65	
104010-41-5	3-Hydroxypregna-5,16-dien-20-one	451.15	
104019-20-7	1-(1H-Indol-7-yl)ethanone	338.65	
104019-21-8	7-Acetyl-1,3-dihydro-2H-indol-2-one	447.65	
1040281-86-4	3-Thiophenecarboxylic acid, 5-(4,4,5,5-tetramethyl-1,3,2-dioxaborolan-2-yl)-, methyl ester	357.65	
104030-54-8	Carpropamid	442.4	
104040-75-7	3-(Trifluoromethyl)-2-pyridinesulfonyl chloride	330.65	
10406-06-1	5-Bromo-1H-indole-3-carboxylic acid	512.15	
10406-37-8	Phosphorothioic acid, O,O-dimethyl S-(pentachlorophenyl) ester	405.65	
10408-82-9	9-Phenyl-3-(phenylmethylene)naphtho[2,3-c]furan-1(3H)-one	510.15	
10408-85-2	1H-Inden-2-amine, 2,3-dihydro-N-methyl-, hydrochloride (1:1)	483.15	
10408-92-1	1H-Inden-1-amine, N-ethyl-2,3-dihydro-, hydrochloride (1:1)	488.15	
104086-74-0	(4aS,6aS,7S,11aR,11bS)-1,2,3,4,4a,5,6,7,8,11,11a,11b-Dodecahydro-7-hydroxy-4,4,11b-trimethyl-6aH-cyclohepta[a]naphthalene-6a,9-dicarboxaldehyde	408.15	
10409-07-1	Bis(4-methylphenyl) disulfone	485.15	
10409-79-7	6-Hydrazinyl-N2,N4-dimethyl-1,3,5-triazine-2,4-diamine	508.15	
104093-05-2	7-Hydroxy-3-methyl-4-oxo-4H-1-benzopyran-2-carboxylic acid	593.15	
104096-91-5	5-Amino-6-(methylamino)-2(1H)-pyrimidinone	488.15	
104097-05-4	Cyclohexanamine, 1-(2-pyridinyl)-, hydrochloride (1:2)	514.65	
1041004-63-0	Ethyl 8-hydroxyimidazo[1,2-a]pyridine-2-carboxylate	388.15	
10411-57-1	N1,N1,N2,N2-Tetrabutyl-1,2-ethanediamine		499.15
104121-92-8	Eldecalcitol	400.15	
10413-34-0	2-Amino-4-(1,1-dimethylethyl)-3-thiophenecarbonitrile	364.65	
10414-68-3	Benzoic acid, 4-methoxy-, carboxymethyl ester	415.65	
10417-85-3	Pregnane-3,11,20-triol, (3α,5β,11β,20R)-	402.15	
104189-86-8	5-Chloro-2,3-dihydro-2-oxo-1H-benzimidazole-1-acetic acid	490.15	
10420-75-4	4′-Chloroflavone	461.65	
104201-66-3	Methyl (2E)-3-[3-(trifluoromethyl)phenyl]-2-propenoate	322.85	
1042157-24-3	4-Pyridinecarboxylic acid (2E)-2-[(4-chlorophenyl)methylene]hydrazide	463.15	
104216-51-5	2-Methoxy-4,6-dimethylbenzeneacetic acid	425.65	
104216-92-4	Benzoic acid, 2-(methoxymethyl)-, ethyl ester		520.15
104217-24-5	α,3-Dimethyl-2-quinoxalinemethanol	353.9	
104224-63-7	2-(1-Adamantyl)-4-bromoanisole	411.65	
104226-21-3	2,2′-[[4-[2-(4-Aminophenyl)diazenyl]-3-methylphenyl]imino]bis[ethanol]	422.15	
104227-86-3	6-Deoxypenciclovir	426.15	
104227-88-5	2-[2-(2-Amino-9H-purin-9-yl)ethyl]-3-hydroxypropyl acetate	440.15	
104227-89-6	9-[2-(2,2-Dimethyl-1,3-dioxan-5-yl)ethyl]-9H-purin-2-amine	392.15	
104239-97-6	3-Oxo-4-aza-5α-androst-1-ene-17β-carboxylic acid	569.15	
10425-07-7	(4-Hydroxy-2-methylphenyl)phenylmethanone	402.15	
10425-44-2	1-(4-Methylphenyl)-1-butanone 2-(2,4-dinitrophenyl)hydrazone	461.15	
10425-71-5	3,5-Dinitro-4-pyridinol	588.15	
1042719-97-0	(5α,25S)-3-Oxocholestan-26-oic acid	424.65	
1042722-42-8	4-Bromo-2,3-dihydro-5,6-dimethoxy-1H-isoindol-1-one	478.15	
104273-33-8	Methyl thieno[3,2-b]pyridine-5-carboximidate	367.9	
104291-82-9	Methyl 6-formyl-1H-indole-2-carboxylate	463.65	
104293-88-1	3,4-Dimethyl-5-(1-methylethyl)pyridine		505.65
104294-64-6	Benzenemethanamine, 2-ethoxy-N-methyl-, hydrochloride (1:1)	404.65	
104296-01-7	6-Amino-2-[(phenylmethyl)amino]-4(3H)-pyrimidinone	476.15	
1042981-21-4	1-(2-Methylimidazo[1,2-a]pyridin-5-yl)ethanone	357.15	
10431-99-9	2-Isopropyl-2-oxazoline		410.65
104338-22-9	2-Methoxy-α,5-dimethylbenzenemethanamine	370.15	
104340-41-2	2-[[(6-Methoxy-1H-benzimidazol-2-yl)sulfinyl]methyl]-N,N-dimethylbenzenamine	382.15	
104356-19-6	(2,5-Dihydro-2,5-dioxo-1H-pyrrol-1-yl)methyl thiocyanate	380.65	
104366-23-6	2-Amino-4-chloro-5-formyl-3-thiophenecarbonitrile	543.15	
10437-90-8	3-Phenyl-2-oxa-3-azabicyclo[2.2.2]oct-5-ene	338.65	
104373-97-9	N-(3-Acetylphenyl)-2-propenamide	388.65	
104400-52-4	2,5-Dioxo-1-pyrrolidinyl α-methyl-4-(2-methylpropyl)benzeneacetate	356.15	
10441-27-7	3-Acetyl-7-hydroxy-2H-1-benzopyran-2-one	509.15	
10442-33-8	3,4-Diphenyl-3,4-hexanediol	404.65	
10442-83-8	2-[[2-Nitro-4-(trifluoromethyl)phenyl]amino]ethanol	351.65	
10442-95-2	2-(2-Oxocyclopentyl)-1H-isoindole-1,3(2H)-dione	449.15	
10444-90-3	N-[5-(Trifluoromethyl)-1,3,4-thiadiazol-2-yl]benzenesulfonamide	429.15	
104458-33-5	1-Propanesulfonamide, 3-amino-, hydrochloride (1:1)	432.65	
10447-11-7	4-Methyl-1-naphthalenesulfonyl chloride	352.15	
10447-30-0	1-(2-Pyridinylamino)methanol	374.65	
104485-20-3	Cyclopentanamine, 2-methyl-, hydrochloride, (1S,2S)-	470.15	
104531-21-7	(3S)-3-Hydroxy-D-norvaline	499.15	
104540-39-8	5-(Methoxymethyl)-2,4-imidazolidinedione	441.65	
10457-69-9	3β-Methoxyandrost-5-en-17-one	412.9	
104575-40-8	2-(4-Fluorophenyl)-5-methyl-1H-imidazole	459.15	
104575-42-0	2-(4-Fluorophenyl)-1,5-dimethyl-4-nitro-1H-imidazole	406.65	
104599-90-8	Methyl 7-chloro-1-cyclopropyl-6-fluoro-1,4-dihydro-4-oxo-3-quinolinecarboxylate	529.15	
1046079-26-8	1,1-Dimethylethyl (2S)-2-(4,5-dihydro-5-thioxo-1,3,4-oxadiazol-2-yl)-1-pyrrolidinecarboxylate	465.15	
1046079-37-1	1,3,4-Oxadiazol-2(3H)-one, 5-(3-piperidinyl)-, hydrochloride (1:1)	480.15	
104612-36-4	5-Bromo-1,2-dihydro-2-oxo-3-pyridinecarboxylic acid	518.15	
104614-58-6	4-Ethyl-1,3-benzenedicarbonitrile	339.65	
104637-64-1	4-Chloro-6-(1-piperidinyl)-2-pyrimidinamine	431.15	
10465-82-4	1,1′-(1,2-Diazenediyl)bis[1-(4-morpholinyl)methanone]	413.65	
10465-92-6	4-Chloro-α-[(2-nitrophenyl)methylene]benzeneacetic acid	459.4	
104668-88-4	7,3′-Di-O-methylorobol	452.15	
104675-26-5	9-Amino-3,4-dihydro-1(2H)-acridinone	512.15	
10468-17-4	3-Chloro-N-hydroxybenzenamine	322.15	
104680-37-7	Methyl 5-ethyl-3-hydrazinyl-2-thiophenecarboxylate	321.65	
104691-86-3	5,7-Dihydroxy-3-(4-hydroxyphenyl)-8-(3-methyl-2-buten-1-yl)-4H-1-benzopyran-4-one	407.15	
104699-52-7	N-[4-(2-Propen-1-yl)phenyl]acetamide	364.65	
10470-82-3	2-(2-Naphthyloxy)propionic acid	387.15	
104700-97-2	Ganoderol A	350.65	
104700-98-3	Ganoderal A	400.65	
104704-09-8	4′-Methyl[2,2′-bipyridine]-4-carboxaldehyde	403.65	
104706-47-0	3-Pyrrolidinol, hydrochloride (1:1), (3R)-	380.65	
104713-75-9	Barnidipine	411.15	
10472-94-3	1-Phenyl-3-(2-pyridinyl)-1,3-propanedione	430.15	
104750-61-0	Ethyl 2-methylbenzenepropanoate		533.65
104759-35-5	Ganoderic acid S	441.65	
10476-50-3	Benzoic acid, 3-hydroxy-, ion(1-)	454.65	
104761-48-0	1-Naphthalenediazonium, 4-bromo-5,6,7,8-tetrahydro-, tetrafluoroborate(1-) (1:1)	396.65	
104768-36-7	2-[[(5-Methyl-2-pyridinyl)amino]methyl]phenol	414.15	
10477-83-5	4-Methylbenzaldehyde 2-(4-nitrophenyl)hydrazone	482.15	
104776-77-4	4-(3-Bromo-5-isoxazolyl)-2-thiazolamine	434.15	
104785-55-9	2,4-Dimethyl-3-quinolinecarboxylic acid	544.15	
104796-33-0	2-Benzofurancarboxylic acid, 3-hydroxy-5-methoxy-, methyl ester	456.15	
104801-96-9	(3S,4S,6R)-3-Hexyltetrahydro-4-hydroxy-6-undecyl-2H-pyran-2-one	381.65	
10481-34-2	2-Bromo-2-cyclopenten-1-one	312.4	
104819-49-0	Pyridine, 2-bromo-3-methoxy-6-nitro-, 1-oxide	414.15	
104829-98-3	2-Bromo-4,6-dimethyl-3-pyridinamine	334.65	
10483-91-7	Germanicol acetate	557.15	
104830-02-6	Ethyl 3-(4-amino-2,6-dimethyl-3-pyridinyl)-2-propenoate	449.65	
10486-91-6	N-Acetylgalactosaminitol	448.15	
104862-12-6	Methyl 3-methyl-5-nitro-2-benzofurancarboxylate	420.9	
104864-10-0	1-Propanamine, 2-[(4-chlorophenyl)thio]-, hydrochloride (1:1)	451.15	
10487-06-6	1,1-Bis(2-chloroethyl)hydrazine	405.65	
104872-07-3	3-Hexyl-4-(2-hydroxytridecyl)-2-oxetanone	318.4	
10488-96-7	5-Methyl-2,6-diphenyl-4(3H)-pyrimidinone	533.15	
104883-49-0	3-Aminooctanoic acid	478.15	
104903-25-5	N-[(Dimethylphenylsilyl)methyl]urea	371.65	
10491-77-7	2-Ethyl-4-pyrimidinamine	523.15	
104916-41-8	4-Methoxy-3,5-dimethyl-2-pyridinecarbonitrile	333.15	
104934-50-1	Poly(3-hexylthiophene)	453.15	
104934-51-2	Poly(3-octylthiophene)	435.15	
104934-53-4	Poly(3-dodecylthiophene)	329.25	
10494-82-3	2-Amino-N-butylbenzamide	357.15	
104941-52-8	5-[[(2-Chlorophenyl)amino]sulfonyl]-2-methylbenzoic acid	450.15	
104941-56-2	2-Methyl-5-[[(4-methylphenyl)amino]sulfonyl]benzoic acid	493.15	
104941-61-9	4-Methyl-3-[(phenylamino)sulfonyl]benzoic acid	433.15	
104960-56-7	3-Amino-6-phenyl-4-(trifluoromethyl)thieno[2,3-b]pyridine-2-carboxylic acid	462.15	
1049731-37-4	2-[(2-Hydroxyethyl)seleno]benzoic acid	390.15	
1049789-65-2	4-Quinolinamine, N-(4-ethoxyphenyl)-6-methoxy-2-methyl-, hydrochloride (1:1)	555.15	
104994-91-4	2-Methoxy-5-(3-pyridinyl)benzenamine	383.15	
104996-59-0	2,3,4,9-Tetrahydro-6-(methylthio)-1H-pyrido[3,4-b]indol-1-one	475.65	
104997-51-5	Ethyl 4-bromo-β-cyano-α-oxobenzenepropanoate	416.65	
105-23-7	α-Methylcyclopentaneethanamine		435.65
105-92-0	Rhodopin	444.15	
10500-64-8	4-[(7-Chloro-4-quinolinyl)amino]-1-pentanol	453.15	
10503-11-4	(3S,11E)-3,4,5,6,9,10-Hexahydro-14-hydroxy-16-methoxy-3-methyl-1H-2-benzoxacyclotetradecin-1,7(8H)-dione	464.15	
105037-85-2	Arucadiol	373.15	
10504-05-9	2-Methyl-5-(1-methylethyl)furan		409.15
10504-98-0	N-[(4-Chlorophenyl)methyl]-4-methylbenzenesulfonamide	380.65	
10505-22-3	1,4,5,7-Tetrahydro-1-methyl-5,7-dioxo-6H-pyrazolo[4,3-d]pyrimidin-6-yl benzenesulfonate	508.15	
10506-38-4	Allophanic acid, 4,4-dimethyl-2-phenyl-1,3-dithio-, O-phenyl ester	404.65	
10509-19-0	1,1′,1′′-Methylidynetris[4-ethynylbenzene]	355.65	
105105-32-6	4-(Dimethylamino)-N,N-dimethylbenzeneacetamide	351.65	
105105-34-8	N-Hydroxy-N-phenyl-1-piperidinemethanamine	373.15	
105108-20-1	Ligucyperonol	397.15	
10512-94-4	N-[(Phenylmethoxy)carbonyl]-D-valine 4-nitrophenyl ester	335.65	
105124-97-8	3,2′:4′,3′′-Terthiophene	431.15	
10513-98-1	2,2′-(1,6-Hexanediyl)bis[1H-isoindole-1,3(2H)-dione]	451.15	
105132-92-1	Gnetin H	458.15	
10514-61-1	4,5-Diethyl 1-methyl-1H-pyrazole-4,5-dicarboxylate		375.65
105140-33-8	2,5,8-Triphenyl-1H-[1,2,4]triazolo[1,2-a]pyridazine-1,3(2H)-dione	468.65	
105149-04-0	Osaterone	492.65	
10517-70-1	2-Propen-1-ol, 1-chloro-, acetate		379.65
105186-35-4	(7α,17α)-17,19-Dihydroxy-7-methyl-19-norpregn-4-en-20-yn-3-one	472.65	
10519-07-0	4-Methylphenyl 3-phenyl-2-propenoate	369.65	
10519-99-0	N,N′,1,1-Tetramethylsilanediamine		340.65
105192-41-4	(2-Amino-5-chlorophenyl)-3-pyridinylmethanone	388.65	
10521-08-1	2H-Pyran-2,4,6(3H,5H)-trione	412.15	
105211-80-1	1-(5-Bromo-2-hydroxyphenyl)-1-butanone	323.9	
105219-44-1	3,5-Difluoro-4-methoxybenzenepropanoic acid	345.65	
10522-43-7	2,5-Dimethyl-8-quinolinol	357.15	
10523-48-5	3-Cyano-4-hydroxycoumarin	515.15	
105230-44-2	Methyl 2-[2-[(4-methylphenyl)sulfonyl]diazenyl]benzoate	386.15	
105234-34-2	Ethyl 4-oxo-1(4H)-quinazolineacetate	434.15	
105247-17-4	3-[[3,5-Bis(1,1-dimethylethyl)-4-hydroxyphenyl]methyl]-2(3H)-benzothiazolethione	425.65	
105280-01-1	1-(3-Ethynylphenyl)-1H-pyrrole-2,5-dione	408.15	
10529-96-1	5β-Androst-1-en-17β-ol-3-one	467.9	
105310-75-6	rel-(1R,2S)-2-[(1,3-Dihydro-1,3-dioxo-2H-isoindol-2-yl)methyl]-N,N-diethyl-1-phenylcyclopropanecarboxamide	404.15	
1053228-29-7	2,4-Dichloro-5-fluoro-7H-pyrrolo[2,3-d]pyrimidine	507.15	
10533-09-2	N-(2,5-Dimethylphenyl)cyanamide	390.6	
10534-44-8	3-Dehydroquinic acid	470.65	412.65
105340-04-3	5-Ethyl-1-methyl-5-phenyl-4-imidazolidinone	427.65	
10535-17-8	Adlerol	371.15	
10535-35-0	Tricyclo[3.3.1.13,7]decan-2-one, 2-(2,4-dinitrophenyl)hydrazone	487.15	
105355-26-8	2-Amino-5-[[4-[2-(5-ethyl-2-pyridinyl)ethoxy]phenyl]methyl]-4(5H)-thiazolone	460.65	
105361-77-1	4,5-Dibromo-2-phenylthiazole	367.4	
105363-12-0	N-Hydroxy-3,4-dimethoxybenzenecarboximidoyl chloride	415.15	
105369-89-9	(3α,5β,7α,23R)-3,7,23-Trihydroxycholan-24-oic acid	496.65	
10538-55-3	Cholan-24-oic acid, 3,7-dihydroxy-, methyl ester, (3α,5β,7β)-	331.65	
10538-59-7	Methyl (3α,5β)-3-hydroxy-7-oxocholan-24-oate	376.65	
10538-64-4	Methyl (3α,5β,7α)-3,7-dihydroxy-12-oxocholan-24-oate	432.15	
10539-87-4	Laurinterol	327.65	
105398-59-2	7-Fluoro-1,3-dihydro-3-oxo-1-isobenzofurancarbonitrile	373.15	
1054-88-2	Spiroxatrine	490.05	
10540-32-6	4′-Fluoro-3-nitro-1,1′-biphenyl	355.65	
10540-33-7	4′-Fluoro[1,1′-biphenyl]-3-carbonitrile	340.1	
105405-52-5	4,4′,4′′-(1,3,5-Benzenetriyl)tris[2-methyl-3-butyn-2-ol]	442.65	
10541-64-7	Methane, bis(2,5-dichlorophenyl)-	354.65	
10543-64-3	N1-Phenylethanediamide	683.15	
10547-33-8	N-(2,4-Dinitrophenyl)valine	458.15	
105480-29-3	2,2,2-Trifluoro-1-(1H-imidazol-2-yl)ethanone	461.65	
10550-80-8	15H-10,15a-Methano-2H,5H,6H,9H-4a,5a,14a-triazabenzo[5,6]cyclooct[1,2,3-de]anthracene, tetradecahydro-, (8aS,8bR,10S,10aR,15aR,15bR)-	400.15	
10551-16-3	5-(1H-Pyrrol-2-yl)-1,3,4-oxadiazole-2(3H)-thione	480.15	
10551-18-5	9,10-Dihydro-N2,N2,N7,N7,9,9-hexamethyl-2,7-anthracenediamine	349.15	
10551-38-9	2-Chloro-3-methyl-1,4-benzenediol	388.65	
10553-08-9	7-Methyl-5-nitro-1H-indole	493.15	
10553-09-0	5-Methyl-7-nitro-1H-indole	403.15	
10553-86-3	1,3-Diethyl 2-(3-chloro-2-buten-1-yl)propanedioate	532.15	
105544-31-8	Ethyl 2-[(5-bromo-3-nitro-2-pyridinyl)oxy]propanoate	313.9	
10557-19-4	1-[1,1′-Biphenyl]-4-yl-1,2-propanedione	327.15	
10557-21-8	1-(4-Chlorophenyl)-1,2-propanedione	295.65	
10557-86-5	4-Chloro-3,5-dimethylisoxazole		322.15
105576-67-8	2-(3,5-Diamino-1H-pyrazol-4-yl)-1-phenylethanone	492.15	
105576-80-5	2-(1,4-Dihydro-1-methyl-4-oxo-3-quinolinyl)benzamide	414.65	
105577-50-2	2,3-Dihydro-6,7-diphenyl-1H-pyrrolizine-5-acetonitrile	418.15	
1055995-89-5	4-Bromo-N-cyclopropyl-2-fluorobenzenesulfonamide	361.65	
10560-52-8	N-(2-Chlorophenyl)-N-nitrosoacetamide	320.15	
105601-04-5	3-[1-(Dimethylamino)ethyl]phenol	360.65	
105613-48-7	HMPAO	400.15	
105624-86-0	2-[2,6-Bis(1-methylethyl)phenyl]-5-hydroxy-1H-isoindole-1,3(2H)-dione	474.15	
10567-02-9	Carbethopendecinium bromide	431.65	
105694-45-9	4-Iodo-1(3H)-isobenzofuranone	414.15	
1057-47-2	L-Tyrosine, N-(3,5-diiodo-L-tyrosyl)-3,5-diiodo-	503.15	
105728-90-3	2-Fluoro-5-methoxybenzaldehyde	322.15	
105734-79-0	3-Isocyanato-5-methyl-1,2-benzisothiazole	560.15	
10574-44-4	Benzoic acid, 3,5-dinitro-, decyl ester	327.65	
10574-67-1	1,3-Diethyl-2-thioxo-4-imidazolidinone	351.15	
10574-71-7	3,5,5-Trimethyl-2-thioxo-4-thiazolidinone	364.15	
105748-58-1	Cyclobrassinin	408.65	
105748-59-2	Brassinin	407.15	
105776-12-3	4,6-Dimethoxy-2-methyl-1H-indole	393.65	
105776-14-5	4,6-Dimethoxy-2,3-dimethyl-1H-indole	397.65	
105798-74-1	Clitocine	453.15	
1058-55-5	(6α,11β)-21-(Acetyloxy)-6-fluoro-11,17-dihydroxypregn-4-ene-3,20-dione	479.65	
1058-61-3	Stigmast-4-en-3-one	355.15	
105802-46-8	4-[4-(Diethylamino)styryl]-N-methylpyridinium iodide	535.15	
10583-84-3	1,3-Dihydro-1-propyl-2H-imidazole-2-thione	388.65	
105836-96-2	2,8-Dibromodibenzo-p-dioxin	418.15	
105837-05-6	6-Bromo-2,7-dimethoxy-1,4-naphthalenedione	530.15	
1058705-94-4	8-Nonenoic acid, 2-[[(1,1-dimethylethoxy)carbonyl]amino]-, (2S)-, compd. with N-cyclohexylcyclohexanamine (1:1)	356.15	
10590-85-9	Trichocarpin	408.15	
105901-11-9	3-Bromo-9H-fluoren-2-amine	415.15	
10591-30-7	2,18-Diethyl 3,7,12,17-tetramethyl-21H,23H-porphine-2,18-dipropanoate	472.65	
105942-10-7	3-Fluoro-4-formylbenzonitrile	349.65	
105955-11-1	N-Oleoyldopamine	324.4	
105956-99-8	3-Quinolinecarboxylic acid, 7-(3-amino-1-pyrrolidinyl)-8-chloro-1-cyclopropyl-6-fluoro-1,4-dihydro-4-oxo-, hydrochloride (1:1)	537.15	
10596-22-2	Phosphonic acid, (dichloromethylene)bis-, tetrakis(1-methylethyl) ester	323.55	
105962-57-0	Methyl (2Z)-2-(acetylamino)-3-(4-nitrophenyl)-2-propenoate	448.15	
10597-50-9	7-Nitro-1H-benzimidazol-5-amine	566.15	
10597-55-4	5-Chloro-1H-benzimidazol-7-amine	421.65	
105972-24-5	2-[2-(4-Pyridinyl)ethyl]benzenamine	349.15	
10599-59-4	2-(1-Methylethyl)furan	471.15	313.15
105994-56-7	1-Methyl-3-phenyl-1H-pyrazole-4-carboxylic acid	369.15	