CAS	name	Tm	Tb
15372-37-9	β-Ethyl-6-hydroxy-α,α-dimethyl-2-naphthalenepropanoic acid	447.65	
15373-33-8	Methyl 3,4-bis(phenylmethoxy)benzeneacetate	314.65	
15375-21-0	Androsta-1,4,9(11)-triene-3,17-dione	438.15	
153756-24-2	Guanidine, methanesulfonate (1:1)	479.65	
1538-63-2	Dichloro-μ-oxohexaphenyldiantimony	490.15	
153813-69-5	Benzoic acid, 4-formyl-3-nitro-, methyl ester	327.65	
153813-70-8	3-Nitro-4-pyridinecarboxaldehyde	326.65	
153815-60-2	9H-Fluoren-9-ylmethyl N-[(1S)-2-hydroxy-1-(1H-indol-3-ylmethyl)ethyl]carbamate	361.15	
15384-37-9	D-Xylono-1,4-lactone	370.15	
15384-39-1	(3-Methoxyphenyl)hydrazine	332.65	
153851-71-9	5H-Pyrazolo[1,2-a][1,2,4]triazol-4-ium, 6,7-dihydro-6-mercapto-, chloride (1:1)	400.65	
15386-82-0	Propanoic acid, 3-[(3-chlorophenyl)amino]-3-oxo-, ethyl ester	348.65	
1539-41-9	2-Pyridinemethanamine, N-(2-pyridinylmethyl)-, hydrochloride (1:3)	428.65	
1539-44-2	2,6-Dimethyl-4-phenyl-3,5-pyridinedicarboxylic acid diethyl ester	337.15	
15394-83-9	2,4,5-Trimethoxyphenylethylamine	340.15	
15396-37-9	3,5-Dichloro-2-iodobenzoic acid	444.65	
15396-38-0	2,3,5-Tribromobenzoic acid	466.15	
15396-39-1	2-Bromo-3,5-dichlorobenzoic acid	451.15	
15396-42-6	N-(2-Phenylethyl)-9H-purin-6-amine	518.65	
15397-15-6	β-D-Ribofuranose, 2-C-methyl-, 1,2,3,5-tetrabenzoate	428.65	
153976-43-3	(2E)-1-(3-Hydroxyphenyl)-3-(3-methylphenyl)-2-propen-1-one	363.15	
15399-05-0	Ethyl 2-hydroxy-3-phenylpropanoate	319.65	
15399-41-4	(3β,4α,16α,21β,22α)-3,16,21,22,28-Pentahydroxyolean-12-en-23-al	511.4	
154-36-9	Trifoside	508.65	
1540-84-7	9,26-Pentatriacontadien-18-one	332.65	
15400-54-1	Ethyl 2,4-diamino-5-pyrimidinecarboxylate	477.65	
15401-60-2	Methyl (2S,3R,4S)-4-[[(1R)-2-acetyl-1,2,3,4-tetrahydro-6,7-dihydroxy-1-isoquinolinyl]methyl]-3-ethenyl-2-(β-D-glucopyranosyloxy)-3,4-dihydro-2H-pyran-5-carboxylate	448.15	
15401-66-8	Nornantenine	436.65	
15402-27-4	1,7-Dihydroxy-3,8-dimethoxyxanthone	465.15	
15403-48-2	1,3-Dimethyl 4,6-diamino-1,3-benzenedicarboxylate	477.75	
15404-76-9	Fuscaxanthone C	393.65	
154055-57-9	2-(1,1-Dimethylethyl)-1H-imidazo[1,2-a]benzimidazole-1-ethanol	430.65	
1541-11-3	7-Phenyl-1,3,5-cycloheptatriene	437.65	
1541-26-0	2-(2-Cyclohexen-1-yl)-1H-isoindole-1,3(2H)-dione	387.65	
15414-89-8	1,3,5,5-Tetramethyl-2,4-imidazolidinedione	358.15	
154229-19-3	Abiraterone	500.65	
154321-60-5	4-(2-Thienyl)-2-pyrimidinamine	447.15	
154350-29-5	Cyclopropanesulfonamide	379.65	
154365-37-4	Ethyl 3,4-dihydro-2-methyl-6-nitro-3-oxo-2H-1,4-benzoxazine-2-carboxylate	449.15	
154394-15-7	Cholest-5-en-3-ol (3β)-, α-methyl-4-(2-methylpropyl)benzeneacetate	390.15	
15441-09-5	3-Isothiazolidinone, 1,1-dioxide	392.15	
154447-36-6	2-(4-Morpholinyl)-8-phenyl-4H-1-benzopyran-4-one	457.15	
154461-65-1	(2E)-3-[4-(β-D-Glucopyranosyloxy)-3,5-dimethoxyphenyl]-2-propenal	495.15	
15448-59-6	2,3-Epoxy-2-methyl-1,4-naphthoquinone	373.65	
15448-77-8	1-Methyl bicyclo[2.2.1]heptane-1,4-dicarboxylate	379.15	
1545-96-6	N-(4-Fluorophenyl)-4-nitrobenzenesulfonamide	462.9	
1545-97-7	6-Fluoro-9-(phenylmethyl)-9H-purine	402.15	
15450-72-3	8-(Acetyloxy)-2(1H)-quinolinone	521.15	
15450-76-7	8-Hydroxy-1H-quinolin-2-one	560.65	
15451-04-4	Carbonochloridic acid, 4-(chloromethyl)phenyl ester	334.65	
15454-54-3	2H-Tetrazol-5-amine, hydrate (1:1)	476.65	
15459-50-4	4-Chloro-2,6-diiodophenol	380.65	
15459-85-5	Lathostenone	419.65	
154593-58-5	(αS)-α-Amino-5-bromo-2-thiophenepropanoic acid	535.15	
154598-53-5	1-(2-Amino-5-chlorophenyl)-2,2,2-trifluoroethanone	363.65	
15460-13-6	2,4-Dibromo-6-cyclohexylphenol	324.65	
15468-21-0	6-Amino-1-ethyl-2,3-dihydro-2-thioxo-4(1H)-pyrimidinone	522.65	
15474-81-4	Hexanedioic acid, 3,4-dimethyl-, (R*,S*)-	406.65	
15474-96-1	N-(2-Chloroacetyl)glycylglycine	448.65	
1548-84-1	Phenol, 2,3,4,5,6-pentafluoro-, 1-benzoate	350.5	
154801-30-6	(2S,3S,4R)-2-[(2′R)-2′-hydroxytetracosanoylamino]-1,3,4-octadecanetriol	414.15	
15481-39-7	1,4-Dioxane, compd. with bromine (1:1)	333.65	
154822-66-9	4-(4-Methoxyphenyl)-3,5-dimethylisoxazole	339.65	
154848-37-0	2′-Methoxy[1,1′-biphenyl]-3-carbonitrile	359.15	
154848-43-8	3′-Hydroxy[1,1′-biphenyl]-3-carbonitrile	380.65	
154848-44-9	4′-Hydroxy[1,1′-biphenyl]-3-carbonitrile	447.15	
15485-31-1	4-Ethoxy-N-[(4-nitrophenyl)methylene]benzenamine	396.65	
15485-65-1	2-(4-Hydroxyphenyl)-1-(2,4,6-trihydroxyphenyl)ethanone	532.15	
15485-67-3	2-(4-Nitrophenyl)-1-(2,4,6-trihydroxyphenyl)ethanone	518.15	
15485-71-9	1-(2,4-Dihydroxy-6-methylphenyl)-2-(4-methoxyphenyl)ethanone	382.65	
15485-81-1	3-(4-Chlorophenyl)-7-hydroxy-4H-1-benzopyran-4-one	533.15	
15485-97-9	N,2-Dihydroxy-2-methylpropanimidamide	325.15	
154866-93-0	Ethyl 1,2,3,4-tetrahydro-4,6-diphenyl-2-thioxo-5-pyrimidinecarboxylate	465.15	
15492-45-2	(OC-6-11)-Tris(2,2,6,6-tetramethyl-3,5-heptanedionato-κO3,κO5)lutetium	444.15	
154927-05-6	4-Nitro-1-(phenylmethyl)-1H-imidazole-5-carboxaldehyde	389.55	
154934-99-3	2-Chloro-4-(trifluoromethyl)-5-pyrimidinecarbonyl chloride	431.15	
155-10-2	2-Chloro-5-fluoro-4-pyrimidinamine	465.15	
155-54-4	(±)-Dihydroorotic acid	521.15	
155-57-7	(αR)-α-[(6-O-α-L-Arabinopyranosyl-β-D-glucopyranosyl)oxy]benzeneacetonitrile	433.15	
1550-27-2	1-Chloro-2-nitro-4-[(trifluoromethyl)sulfonyl]benzene	328.65	
15501-38-9	N-(1,1-Dimethylpropyl)acetamide	350.65	
155087-34-6	2-Amino-4-chloro-6-(4-morpholinyl)-5-pyrimidinecarboxaldehyde	450.15	
1551-45-7	Ethyl 4-oxo-4H-pyran-2-carboxylate	370.15	
1551-46-8	Methyl 4-oxo-4H-pyran-2-carboxylate	363.15	
155106-16-4	Piperidine, 2-methyl-, hydrochloride (1:1), (2R)-	466.15	
15513-18-5	N-(1-Methylethyl)-2-pyridinamine	357.15	
15517-46-1	1,1′-(1,4-Phenylene)bis[1-(4-hydroxyphenyl)methanone]	591.65	
15518-34-0	4-Aza-1-azoniabicyclo[2.2.2]octane, 1,1′-(1,5-pentanediyl)bis-, diiodide	550.65	
1552-41-6	Diethyl P-[(4-cyanophenyl)methyl]phosphonate	304.15	
15524-47-7	6,7-Dihydro-5H-cyclopenta[c]pyridine-4-carbonitrile	318.65	
155269-26-4	(2E)-3-(3-Methoxyphenyl)-1-(4-methylphenyl)-2-propen-1-one	339.15	
155270-01-2	4-Piperidinepropanol, hydrochloride (1:1)	428.15	
155306-71-1	C 545T	507.15	
15533-70-7	1-Ethyldihydro-2,4(1H,3H)-pyrimidinedione	419.65	
15536-79-5	1,3-Benzenediol, 4,6-dimethyl-, 1,3-diacetate	343.15	
15540-82-6	2,3-Dibromo-1,4-dimethyl-5-nitrobenzene	372.15	
15541-01-2	1,26-Hexacosanediol	376.65	
155449-11-9	1,3-Dioxepan-2-one, homopolymer	334.15	
15545-50-3	N′-(3,4-Dichlorophenyl)-N,N-diethylurea	384.65	
15545-54-7	N′-(5-Chloro-2-methylphenyl)-N,N-diethylurea	356.65	
15546-75-5	5,10-Dihydro-5,10-dimethylphenazine	425.65	
15547-18-9	Carbonotrithioic acid, mono(2-aminoethyl) ester	359.15	
15548-43-3	4-O-β-D-Mannopyranosyl-D-mannopyranose	475.65	
15548-49-9	2-(1-Oxo-3-phenyl-2-propen-1-yl)-1H-indene-1,3(2H)-dione	455.15	
1555-57-3	3,3′-(Ethylimino)bis[propanenitrile]	322.65	
1556-01-0	2-(2,4-Dichloro-5-methylphenoxy)acetic acid	416.15	
1556-22-5	1-Methyl-4(1H)-cinnolinone	492.65	
1556-63-4	3,6-Dichloro-9H-xanthen-9-one	456.65	
15560-11-9	1-[4-[(2-Methylpropyl)thio]phenyl]ethanone	300.15	
15567-19-8	2-(Ethenyloxy)-1,1,1,2,3,3,3-heptafluoropropane		302.15
15568-92-0	2,2-Dimethyl-5-[(phenylamino)methylene]-1,3-dioxane-4,6-dione	429.65	
15569-99-0	γ-(Methylamino)-3-pyridinebutanoic acid	405.65	
15573-39-4	Bis(trimethylsilyl)phosphine		444.15
15573-67-8	4-Hydroxyphenylglyoxylate	445.65	
15579-59-6	2-Methyl-5-nitro-4-pyrimidinamine	550.65	
15579-65-4	4,5-Pyrimidinediamine, 2-(2-phenylethyl)-	437.65	
1558-59-4	(4S)-4-Aminopentanoic acid	485.65	
15580-66-2	4-Amino-1-methyl-4-piperidinecarboxylic acid	559.15	
155834-22-3	(5S)-5-Methyl-3-[(2R,10R,13R)-2,10,13-trihydroxy-13-[(2R,5R)-tetrahydro-5-[(1R,4Z)-1-hydroxy-4-pentadecen-1-yl]-2-furanyl]tridecyl]-2(5H)-furanone	338.65	
155835-54-4	DIBOA-Glc	532.15	
15586-17-1	1-Methyl-3-(2-pyridinylthio)-4-piperidinone	348.15	
155884-28-9	Methyl 4,5-dihydro-2-methyl-4-oxazolecarboxylate	313.15	
15590-73-5	(Ethylthio)triphenylplumbane	340.65	
155905-79-6	1-(1,1-Dimethylethyl) 2-methyl 4,5-dihydro-1H-pyrrole-1,2-dicarboxylate	362.15	
155905-80-9	1-(1,1-Dimethylethyl) 2-methyl 5,6-dihydro-1,2(4H)-pyridinedicarboxylate	347.15	
15591-75-0	Edultin	412.15	
15596-19-7	(3β)-3-(β-D-Galactopyranosyloxy)olean-12-en-28-oic acid	508.65	
15599-36-7	Halethazole	366.65	
15599-37-8	α-(1-Aminohexyl)-α-phenylbenzenemethanol	333.15	
1560-55-0	Phosphonium, 1-(ethyl-2,2,2-d3)-1,1,1-triphenyl-, bromide (1:1)	479.65	
156001-51-3	5-Bromo-2-methylbenzonitrile	323.15	
156028-40-9	1,4-Dibromo-2,5-bis(octyloxy)benzene	338.15	
15607-14-4	Ethyl 2-methyl-2-propanesulfonate	387.65	
156088-46-9	(5S)-5-(Hydroxymethyl)-3,3-dimethyl-2-pyrrolidinone	321.65	
1561-55-3	1,2-Di-O-tetradecylglycerol	324.15	
1561-96-2	1-Propanesulfonic acid, 2-hydroxy-, sodium salt (1:1)	493.65	
156171-61-8	N-[3-(2-Amino-4-thiazolyl)phenyl]acetamide	497.15	
15619-51-9	4-Phenyl-3-cyclohexen-1-ol	353.15	
1562-13-6	4,5-Bis[(acetyloxy)methyl]-2-methyl-3-pyridinyl dodecanoate	317.15	
156304-06-2	Dimethyl 4-(4-hydroxyphenyl)-2,6-dimethyl-1,4-dihydropyridine-3,5-dicarboxylate	505.15	
156312-10-6	7,8-Dichloro-9-methyl-9H-pyrido[3,4-b]indole	421.15	
15637-51-1	3-Piperidinecarboxylic acid, 1-ethyl-4-oxo-, ethyl ester, hydrochloride (1:1)	417.15	
15639-50-6	Safingol	400.15	
1564-49-4	Ethyl 1-methyl-5-nitro-1H-imidazole-2-carboxylate	353.65	
156413-61-5	Benzenepropanoic acid, β-(benzoylamino)-α-[[(1,1-dimethylethyl)dimethylsilyl]oxy]-, (2aR,4S,4aS,6R,9S,11S,12S,12aR,12bS)-6,12b-bis(acetyloxy)-12-(benzoyloxy)-2a,3,4,4a,5,6,9,10,11,12,12a,12b-dodecahydro-11-hydroxy-4a,8,13,13-tetramethyl-5-oxo-4-[(triethylsilyl)oxy]-7,11-methano-1H-cyclodeca[3,4]benz[1,2-b]oxet-9-yl ester, (αR,βS)-	402.65	
15644-83-4	2,5-Dimethyl-4-quinolinol	549.15	
15644-86-7	6-Chloro-2-methyl-4-quinolinol	594.15	
15644-87-8	5-Chloro-2-methyl-4-quinolinol	534.65	
15644-89-0	8-Methoxy-2-methyl-4-quinolinol	495.15	
15644-90-3	6-Methoxy-2-methyl-4-quinolinol	590.65	
15644-91-4	6-Ethoxy-2-methyl-4-quinolinol	518.15	
156463-85-3	3-Amino-4-cyanofurazan	359.15	
156469-00-0	(αR)-α-Hydroxycyclohexanepropanoic acid	366.15	
156474-26-9	3-Thiomorpholinecarboxylic acid, 1-oxide	533.15	
15648-86-9	Myricetin 3-O-galactoside	470.15	
156499-63-7	Methoxyspirobrassinin	403.15	
1565-91-9	1-(4-Ethoxyphenyl)-3-(2-furanyl)-2-propen-1-one	352.15	
156564-83-9	2-(2-Methoxyethoxy)-5-methylbenzenamine	310.15	
15657-87-1	5-Phenyl-8-hydroxyquinoline	364.65	
15657-95-1	2-(Acetyloxy)propanamide	332.65	
15658-60-3	Diethyl 2,6-pyridinedicarboxylate	301.15	
15658-61-4	1,1′-(1,3-Phenylene)bis[hydrazine]	397.15	
1566-07-0	4-Chloro-γ,ζ-dioxobenzeneheptanoic acid	412.65	
1566-33-2	2-[(2,5-Dihydro-6-methyl-5-oxo-1,2,4-triazin-3-yl)thio]acetic acid	450.15	
156639-77-9	3-epi-Fagomine	494.15	
156640-23-2	1,2,5-Trihydroxy-9H-xanthen-9-one	560.65	
156660-23-0	3,3′-Dimethyl 2,2′-dimethoxy[1,1′-biphenyl]-3,3′-dicarboxylate	349.65	
15667-65-9	2H-Azepin-2-one, hexahydro-, hydrochloride (1:1)	418.15	
156774-73-1	(2E)-3-(6-Nitro-1,3-benzodioxol-5-yl)-2-propenoic acid	551.15	
15679-03-5	6-Chlorophenanthridine	390.65	
1568-14-5	4,5-Dihydro-3-phenyl-1H-pyrazole-1-carboxaldehyde	375.15	
1568-21-4	6-Chloro-2-(2-furanyl)benzothiazole	396.65	
1568-66-7	1-Nitro-4-(2-propen-1-yloxy)benzene	308.15	
1568-74-7	4,4′′-Dimethoxy-1,1′:3′,1′′-terphenyl	470.65	
1568-93-0	2-Amino-7-methyl-1,8-naphthyridine	490.65	
156856-03-0	(3β)-7-Aminocholest-5-en-3-ol	441.65	
15686-68-7	rel-(2R,6R,11R)-3-(Cyclopropylmethyl)-1,2,3,4,5,6-hexahydro-6,11-dimethyl-2,6-methano-3-benzazocine		393.65
15686-74-5	Cyclophenazine hydrochloride	485.65	
15687-27-1	Ibuprofen	349.15	
1569-04-6	N-(2-Chloro-1,1-dimethylethyl)acetamide	473.15	
1569-11-5	7-Methyl-1,8-naphthyridin-2-one	449.65	
1569-18-2	4-Hydroxy-7-methyl-1,8-naphthyridine	509.65	
156972-80-4	5-Phenyl-2,2′-bipyridine	422.15	
157-07-3	(2S)-5-[(Aminoiminomethyl)amino]-2-hydroxypentanoic acid	478.15	
1570-06-5	5,6,7-Trimethoxy-2-(2-methoxyphenyl)-4H-1-benzopyran-4-one	371.15	
1570-67-8	2,6-Dichloro-3,4-dimethylphenol	348.15	
1570-75-8	2,4-Dichloro-5-ethyl-3-methylphenol	329.15	
157023-58-0	N-[4-[(1R)-2-Chloro-1-hydroxyethyl]phenyl]methanesulfonamide	370.15	
157027-30-0	4-Azido-2-chloroquinoline	362.15	
15706-89-5	L-Arginyl-L-glutamic acid	466.9	
1571-74-0	N1,N4-Bis(trimethylsilyl)-1,4-benzenediamine	377.15	
1571-75-1	1,1-Bis(4-hydroxyphenyl)-1-phenylethane	448.15	
1571-87-5	2-(4-Chlorophenyl)-5-nitrobenzimidazole	569.15	
1571-91-1	2-(3-Methylphenyl)-6-nitro-1H-benzimidazole	418.15	
157124-41-9	4-(5-Methyl-1H-tetrazol-1-yl)phenol	451.15	
15717-46-1	9H-Purine, 2-amino-6,8-dichloro-9-(2,3,5-tri-O-acetyl-β-D-ribofuranosyl)-	412.65	
15718-71-5	1,2-Ethanediamine, perchlorate (1:2)	553.65	
1572-11-8	Ethyl 3-amino-5-phenyl-1H-pyrazole-4-carboxylate	441.15	
1572-13-0	1H-Pyrazole-4-carboxylic acid, 3,5-diamino-, methyl ester	504.65	
1572-57-2	2-(1-Amino-2,2,2-trichloroethylidene)propanedinitrile	469.15	
1572-98-1	Propanoic acid, 2-cyano-2-methyl-, ethyl ester		458.15
157212-55-0	Bosentan monohydrate	389.15	
15732-48-6	β-D-Glucopyranoside, [rel-(1R,2S)]-2-hydroxycyclohexyl, 2-[3-(4-hydroxyphenyl)-2-propenoate]	472.65	
15733-87-6	2-Bromo-4-quinolinecarboxylic acid	448.65	
1574-48-7	1-Dotetracontanol	374.65	
157463-84-8	4-Methylbenzo[g]quinoline-2,5,10(1H)-trione	568.15	
1575-38-8	3,5-Dibromo-1,2-benzenediamine	356.15	
1575-44-6	4-Ethyl-2(5H)-furanone	306.15	
1575-48-0	3-Methyl-4-phenyl-2(5H)-furanone	394.65	
15753-48-7	rel-(1R,3S)-3-Hydroxycyclohexanemethanol	454.15	
15754-93-5	3,4-Dimethyl-1H-pyrazole-1-carboxamide	446.65	
1576-38-1	4-Methyl-N-(3-nitrophenyl)benzenesulfonamide	412.15	
1576-39-2	4-Methyl-N-(phenylmethoxy)benzenesulfonamide	345.15	
1576-44-9	4-Nitro-N-phenylbenzenesulfonamide	408.65	
1576-45-0	3-(Phenylsulfamoyl)benzoic acid	486.65	
15761-61-2	4-O-β-D-Glucopyranosyl-D-mannose	487.15	
157614-81-8	Poly(pyrrole-N-propionic acid)	319.15	
15763-12-9	N-2-Propen-1-yladenosine	439.15	
15764-81-5	4-Hydroxy-3,5,5-trimethyl-4-[(1E)-3-oxo-1-buten-1-yl]-2-cyclohexen-1-one	381.65	
157652-32-9	1-(2,4-Dichloro-3-methylphenyl)ethanone	311.15	
15768-21-5	2-[[(3,4-Dichlorophenyl)imino]methyl]phenol	386.15	
1577-20-4	(4E)-4-Hexenoic acid	257.15	
1577-96-4	cis-2-Octenoic acid	267.15	
15771-22-9	2,5-Dioxobicyclo[2.2.2]octane-1,4-dicarboxylic acid	544.15	
15775-81-2	2-(3-Phenyl-2-triazen-1-yl)pyridine	450.65	
15775-91-4	4,4′-(1,3-Butadiyne-1,4-diyl)bis[1,2,5-trimethyl-4-piperidinol]	504.65	
15776-99-5	5,6-Dimethyl-1-(phenylmethyl)-1H-benzimidazole	464.15	
15777-70-5	4-Hydroxy-3-methylbenzonitrile	367.15	
1578-16-1	3-Bromo-1,1-dichloro-2-propanone	303.65	
1578-60-5	2-Fluorodecanoic acid	336.65	
1578-90-1	2,4-Dihydro-5-(4-methoxyphenyl)-4-methyl-3H-pyrazol-3-one	466.65	
15781-72-3	Propanedioic acid, 2-ethyl-, 1,3-bis(2,4,6-trichlorophenyl) ester	374.65	
15785-54-3	4-Hydroxy-3-methoxy-5-nitrobenzoic acid	489.15	
157869-15-3	2-[2-(4-Methoxyphenyl)ethynyl]benzenamine	373.65	
15789-04-5	N,N-Diethyl-3-hydroxybenzamide	356.65	
1579-15-3	2-(Acetyloxy)-2,3-dihydro-1H-inden-1-one	342.15	
1579-89-1	N-[4-Amino-3-(trifluoromethyl)phenyl]acetamide	391.65	
15791-89-6	3,3′-Oxybis[benzoic acid]	517.15	
157915-68-9	2-Amino-4-quinolinecarboxylic acid	635.15	
15793-78-9	3-Hydrazinylquinoline	449.65	
157945-83-0	2-[(1E)-3,3-Dimethyl-1-buten-1-yl]-4,4,5,5-tetramethyl-1,3,2-dioxaborolane	308.15	
15795-52-5	1,3-Dioxane-4,6-dione, 2,2-dimethyl-5-[(3-methylphenyl)methylene]-	345.65	
15795-57-0	5-[[4-(Dimethylamino)phenyl]methylene]-2,2-dimethyl-1,3-dioxane-4,6-dione	435.15	
158021-47-7	N-[(1S,2S,3R)-1-[(α-D-Galactopyranosyloxy)methyl]-2,3-dihydroxyheptadecyl]hexacosanamide	463.15	
15806-44-7	1-Naphthalenyl octadecanoate	398.15	
158081-98-2	4,4′-[2,3-Bis(methylene)-1,4-butanediyl]bis[phenol]	433.4	
15809-22-0	Salicylideneacetylacetone	373.15	
15811-32-2	Adenosine, 2-fluoro-, 2′,3′,5′-triacetate	484.15	
15813-09-9	4,5-Diiodo-1H-imidazole	455.15	
158141-36-7	2-Quinazolineacetonitrile	374.65	
15817-86-4	1-Propanone, 1-(2-benzofuranyl)-3-(dimethylamino)-, hydrochloride (1:1)	461.15	
15823-12-8	2,4,13,15-Hexadecanetetrone	349.4	
158237-07-1	Fentrazamide	352.15	
15827-61-9	2,2′-(1,2-Ethanediyl)bis[5-methylbenzoxazole]	448.65	
15835-74-2	5,7-Dihydroxy-2-(3-hydroxy-4-methoxyphenyl)-6,8-dimethoxy-4H-1-benzopyran-4-one	513.15	
158414-46-1	Cyclohexanecarboxylic acid, 2-amino-, hydrochloride (1:1), (1R,2R)-	468.65	
1585-68-8	Catalpalactone	383.65	
15850-25-6	N-Phenyl-N′-(4-phenyl-2-thiazolyl)urea	487.15	
15850-33-6	4-[4-(2-Methylpropoxy)phenyl]-2-thiazolamine	396.65	
15850-84-7	6-(2-Methylpropoxy)-2-benzothiazolamine	413.15	
158584-21-5	3-(4-Methoxybenzoyl)-4H-1-benzopyran-4-one	424.65	
1586-72-7	N-(Chlorodimethylsilyl)-1,1,1-trimethyl-N-(trimethylsilyl)silanamine	332.15	
15862-19-8	5-Bromo-2,2′-bipyridine	346.15	
15862-30-3	3-Bromo-5-nitropyridine	440.9	
15862-33-6	3-Bromo-5-nitro-2(1H)-pyridinone	495.15	
15862-36-9	2,3-Dibromo-5-nitropyridine	351.15	
15862-37-0	2,5-Dibromo-3-nitropyridine	370.65	
15862-38-1	Pyridine, 3-bromo-2-hydrazinyl-5-nitro-	443.15	
15862-51-8	5-Amino-3-bromo-1-methyl-2(1H)-pyridinone	437.15	
158722-23-7	5-Oxazolecarboxylic acid, 4,5-dihydro-2,4-diphenyl-, (2aR,4S,4aS,6R,9S,11S,12S,12aR,12bS)-6,12b-bis(acetyloxy)-12-(benzoyloxy)-2a,3,4,4a,5,6,9,10,11,12,12a,12b-dodecahydro-11-hydroxy-4a,8,13,13-tetramethyl-5-oxo-4-[(triethylsilyl)oxy]-7,11-methano-1H-cyclodeca[3,4]benz[1,2-b]oxet-9-yl ester, (4S,5R)-	484.65	
15875-55-5	2-[(3-Chlorophenyl)methylene]-1H-indene-1,3(2H)-dione	440.65	
158840-80-3	3-(4-Pyridinyl)-5-isoxazolemethanol	378.65	
158876-69-8	2-(2-Chloro-4-pyridinyl)-1-(4-fluorophenyl)ethanone	382.15	
1589-92-0	8-Hydroxy-2-methoxy-6-methyl-1,4-naphthalenedione	383.65	
15891-50-6	N-Acetyl-L-norvaline	389.65	
158958-76-0	3-Bromo-2-(4-chlorophenyl)imidazo[1,2-a]pyridine	420.15	
15900-27-3	2-Amino-5-(phenylmethyl)-4(5H)-oxazolone	514.65	
15901-54-9	Methyl 3-methyl-5-isothiazolecarboxylate	302.15	
159048-82-5	N-(4-Bromophenyl)-2-nitrobenzenesulfonamide	378.15	
15905-23-4	6-Quinolinecarboxylic acid, 1-oxide	579.15	
15907-95-6	N-Phenylcyclobutanecarboxamide	385.9	
1591-06-6	Dodecaphenylcyclohexasilane	701.15	
1591-38-4	2-Amino-6-methoxybenzamide	424.15	
15911-87-2	(αS)-α-Amino-6-carboxy-2-oxo-2H-pyran-4-propanoic acid	505.15	
15912-69-3	6-Fluoro-4-methyl-2(1H)-quinolinone	528.15	
15918-80-6	2,3-Dihydro-1H-indol-5-amine	951.65	
1592-70-7	Isokaempferide	544.15	
15924-19-3	2,3,3-Trichloro-1,4-oxathiane	326.65	
15926-18-8	Isobutyrylglycine	376.65	
15926-21-3	2-Methyl-N-(2-methyl-1-oxo-2-propen-1-yl)alanine	434.15	
15929-44-9	Bis[3-(trifluoromethyl)phenyl]phosphine oxide	323.65	
15931-17-6	Pyridine, 3-fluoro-2-methyl-4-nitro-, 1-oxide	456.15	
15936-75-1	7-Bromo-5-methyl-1H-indole-2-carboxylic acid	537.15	
15936-76-2	5-Bromo-7-methyl-1H-indole-2-carboxylic acid	511.15	
15936-83-1	5-Chloro-7-methyl-1H-indole-3-carboxaldehyde	486.15	
15937-07-2	2,3-Dihydro-5,6-dimethoxy-1H-indole	378.15	
15937-10-7	1-(2,3-Dihydro-5,6-dimethoxy-1H-indol-1-yl)ethanone	446.65	
15937-63-0	Pyrimidine, hexahydro-, hydrochloride (1:1)		423.15
159383-94-5	(2aR,4S,4aS,6R,9S,11S,12S,12aR,12bS)-12b-(Acetyloxy)-1,2a,3,4,4a,6,9,10,11,12,12a,12b-dodecahydro-11,12-dihydroxy-4a,8,13,13-tetramethyl-4,6-bis[(triethylsilyl)oxy]-9-[(trimethylsilyl)oxy]-7,11-methano-5H-cyclodeca[3,4]benz[1,2-b]oxet-5-one	346.65	
15943-84-7	1-(4-Chlorophenyl)-3-methyl-1H-pyrazole-5-carboxylic acid	486.15	
15944-34-0	7-Chloro-1H-[1,8]naphthyridin-2-one	529.15	
15948-45-5	2,2′,3,3′-Tetrachloro-6,6′-biquinoxaline	566.65	
15957-40-1	6-Hydroxycyclodecanone	343.15	
159585-39-4	(2S)-2-[(4-Butoxy-6-chloro-1,3,5-triazin-2-yl)amino]propanamide	442.65	
15959-97-4	4,4,5,5,5-Pentafluoronorvaline	488.15	
1596-10-7	2-Cyclohexyl-3-methylphenol	353.65	432.15
15965-66-9	2-Chloro-1-methyl-5-nitro-1H-benzimidazole	457.65	
15966-46-8	Ethyl 5-methyl-1-(4-nitrophenyl)-1H-1,2,4-triazole-3-carboxylate	429.15	
15969-31-0	6-Phenyl-1,2,4-triazin-5-amine	400.15	
15971-31-0	Ethyl 3-(4-methoxy-1-naphthalenyl)-2-propenoate	332.15	
159782-19-1	2-(3-Methoxyphenyl)-4-quinolinecarboxylic acid	497.85	
1598-64-7	6-(Fluoromethyl)-2,4(1H,3H)-pyrimidinedione	544.15	
15980-11-7	3-(Azidosulfonyl)benzoic acid	416.15	