CAS	name	Tm	Tb
110-70-3	N,N′-Dimethylethylenediamine	398.15	393.15
110-71-4	1,2-Dimethoxyethane	215.15	355.65
110-72-5	N-Ethylethylenediamine		402.15
110-73-6	2-(Ethylamino)ethanol		442.65
110-74-7	Propyl formate	180.25	354.05
110-75-8	2-Chloroethyl vinyl ether	202.85	383.15
110-76-9	Ethoxyethylamine		381.15
110-77-0	2-(Ethylthio)ethanol	173.15	457.65
110-78-1	Propyl isocyanate		356.65
110-80-5	Glycol monoethyl ether	203.15	408.75
110-81-6	Diethyl disulfide	171.65	427.25
110-82-7	Cyclohexane	279.62	353.85
110-83-8	Cyclohexene	169.65	356.15
110-85-0	Piperazine	379.15	419.15
110-86-1	Pyridine	231.55	388.4
110-87-2	3,4-Dihydro-2H-pyran	203.15	359.15
110-88-3	1,3,5-Trioxane	337.15	387.65
110-89-4	Piperidine	266.15	379.15
110-91-8	Morpholine	268.25	402.05
110-93-0	6-Methyl-5-hepten-2-one	446.65	444.65
110-94-1	Glutaric acid	370.9	473.15
110-95-2	Tetramethyl-1,3-propanediamine	310.15	417.15
110-96-3	Diisobutylamine	199.65	412.75
110-97-4	Diisopropanolamine	318.15	522.65
110-98-5	Bis(2-hydroxypropyl) ether	233.15	506.15
110-99-6	Diglycolic acid	421.15	
1100-88-5	Benzyltriphenylphosphonium chloride	587.65	
11002-90-7	Aurovertin	469.15	
11004-65-2	Mycerin	536.15	
11005-63-3	Strophanthin	438.15	
11006-22-7	Flavofungin	423.15	
11006-31-8	Monazomycin A	400.15	
11006-41-0	Ilamycin	437.65	
11006-66-9	(4E,6R,7E,9E,11E,14S,15E,17E,19E,22S)-22-[(1S,2S,3S,5E,7E,9E,11S,12S)-12-[(6-Deoxy-2,4-di-O-methyl-β-D-galactopyranosyl)oxy]-2,11-dihydroxy-1,3-dimethyl-4-oxo-5,7,9-tridecatrien-1-yl]-6,14-dihydroxy-5,8,12-trimethyloxacyclodocosa-4,7,9,11,15,17,19-heptaene-2,13-dione	368.65	
11006-70-5	Olivomycin	438.15	
11006-76-1	Streptogramin	428.15	
1101-41-3	Tetraphenyldiphosphine	398.15	
110104-37-5	N-Acetylacyclovir	490.15	
110143-05-0	2′,3′-Dideoxy-2′-fluoroadenosine	508.15	
110143-10-7	Lodenosine	499.65	
11016-07-2	Perimycin	460.15	
11018-89-6	Card-20(22)-enolide, 3-[(6-deoxy-α-L-mannopyranosyl)oxy]-1,5,11,14,19-pentahydroxy-, hydrate (1:8), (1β,3β,5β,11α)-	403.15	
11018-93-2	Thevetin	465.15	
1102-19-8	4,4′-Bipyridinium, 1,1′-bis(phenylmethyl)-, chloride (1:2)	511.15	
1102-88-1	(5β)-14-Hydroxy-3-oxocard-20(22)-enolide	287.15	
11021-13-9	Ginsenoside Rb2	471.15	
11021-14-0	Ginsenoside Rc	467.65	
110221-44-8	Temocapril hydrochloride	460.15	
110225-00-8	2-Hexyl-1-dodecanol	265.65	
11023-71-5	Strobopinin	498.15	
110235-47-7	Mepanipyrim	405.95	
11024-24-1	Digitonin	488.15	
11024-56-9	(2S,4aS,4bR,6aS,12bS,12cS,14aS)-3,4,4a,4b,5,6,6a,7,12,12b,12c,13,14,14a-Tetradecahydro-α,α,4a,12b,12c-pentamethyl-2H-1-benzopyrano[5′,6′:6,7]indeno[1,2-b]indole-2-methanol	537.15	
11028-12-9	Bottromycic A acid, hydrazide	446.15	
11028-42-5	Cedrene	535.65	
110283-66-4	3-Pyridinecarboxylic acid, 1-[2-[bis[4-(trifluoromethyl)phenyl]methoxy]ethyl]-1,2,5,6-tetrahydro-, hydrochloride (1:1)	515.15	
11029-72-4	Holothurin	499.15	
1103-59-9	2-[1,1′-Biphenyl]-4-yl-5-(2-naphthalenyl)-1,3,4-oxadiazole	418.15	
11030-31-2	(3β,5β,12β,16β)-3-[(O-β-D-Glucopyranosyl-(1→4)-O-3-O-acetyl-2,6-dideoxy-β-D-ribo-hexopyranosyl-(1→4)-O-2,6-dideoxy-β-D-ribo-hexopyranosyl-(1→4)-2,6-dideoxy-β-D-ribo-hexopyranosyl)oxy]-12,14,16-trihydroxycard-20(22)-enolide	520.25	
11031-45-1	Santalol		578.15
110311-27-8	Sulofenur	443.65	
11032-05-6	(4S,7S,10R,13R)-13-Ethenyl-1,3,4,5,7,8,10,11,12,13-decahydro-4-(hydroxymethyl)-8,10,13-trimethyl-7,10-bis(1-methylethyl)-6H-benzo[g][1,4]diazonino[7,6,5-cd]indol-6-one	408.15	
11032-98-7	Desmycosin	388.15	
11033-22-0	Coformycin	456.15	
11033-64-0	N-Deacetyllappaconitine	492.15	
11033-65-1	Leucinamycin	509.15	
11034-66-5	Aspidospermidine-3-carboxylic acid, 6,7-didehydro-3,20-epoxy-2-hydroxy-, methyl ester, (2β,3α,5α,12R,19α,20S)-	503.15	
11034-77-8	Anacardic acid	296.65	
110347-85-8	Selfotel	564.15	
11037-26-6	Mansonin	447.15	
1104-21-8	Tris[4-(dimethylamino)phenyl]phosphine	548.15	
1104-22-9	Meclizine hydrochloride	488.15	
1104-99-0	Pregna-3,5-dien-20-one, 17-(acetyloxy)-3-methoxy-6-methyl-	492.65	
11040-28-1	α-Sitosterol	407.65	
11042-64-1	γ-Oryzanol	409.15	
110439-07-1	Hydrazine, 1,1-dibutyl-, ethanedioate (1:1)	443.15	
11047-43-1	Corynan-16-carboxylic acid, 16,17-didehydro-9,17-dimethoxy-, methyl ester, (16E,20β)-, compd. with 2,4,6-trinitrophenol (1:1)	496.65	
11048-97-8	Hedamycin	517.15	
110488-70-5	Athlete	410.65	
11049-15-3	Tylosin C	408.15	
11050-94-5	Oligomycin B	433.65	
11051-88-0	Cochliodinol	480.15	
11052-32-7	Holothurin B	496.65	
110528-94-4	1,3-Propanediaminium, 2-hydroxy-N1,N3-bis(2-hydroxyethyl)-N1,N1,N3,N3-tetramethyl-, chloride (1:2)	423.15	
110578-99-9	2-[(1-Methyl-4-nitro-1H-imidazol-5-yl)thio]acetamide	470.15	
110579-04-9	3-[[1-[(4-Methoxy-3-nitrophenyl)methyl]-2-methyl-4-nitro-1H-imidazol-5-yl]thio]propanenitrile	391.65	
1106-03-2	(16β)-21-(Acetyloxy)-17-hydroxy-16-methylpregna-1,4-diene-3,11,20-trione	504.65	
11062-77-4	Superoxide	413.65	
110623-33-1	Suritozole	400.15	
110690-43-2	Emitefur	436.15	
1107-00-2	4,4′-(Hexafluoroisopropylidene)diphthalic anhydride	525.15	
1107-26-2	β-Apo-8′-carotenal	409.65	
1107-99-9	Prednisolone pivalate	506.15	
11071-47-9	Isooctene		398.65
11072-82-5	11-Hydroxy-5-methyl-2-[(1E)-1-methyl-1-propen-1-yl]-8-[2,3,6-trideoxy-3-(dimethylamino)-β-D-arabino-hexopyranosyl]-10-[2,3,6-trideoxy-3-(dimethylamino)-3-C-methyl-α-L-lyxo-hexopyranosyl]-4H-anthra[1,2-b]pyran-4,7,12-trione	485.4	
11072-93-8	β-Escin	495.65	
11078-21-0	Filipin	473.15	
11078-23-2	Copiamycin	417.15	
11078-30-1	D-Galacto-D-mannan	558.15	
11079-26-8	Bis(η8-1,3,5,7-cyclooctatetraene)uranium	453.15	
11079-53-1	Hyperforin	352.65	
110799-28-5	N-(1,1-Dimethylpropyl)-2-benzothiazolesulfenamide	326.15	
1108-68-5	Cinobufotalin	533.65	
110843-97-5	3,3-Bis(2,2,6,6-tetramethyl-4-piperidinyl) 1,5-dioxaspiro[5.5]undecane-3,3-dicarboxylate	439.15	
110843-98-6	3,3-Bis(1,2,2,6,6-pentamethyl-4-piperidinyl) 1,5-dioxaspiro[5.5]undecane-3,3-dicarboxylate	390.65	
110871-86-8	Sparfloxacin	540.65	
110877-64-0	2-Chloro-4,5-difluorobenzoic acid	360.15	
11088-09-8	Wilforine	433.65	
11089-65-9	Tunicamycin	507.65	
1109-11-1	Ethyl β-apo-8′-carotenoate	409.15	
1109-15-5	Tris(pentafluorophenyl)borane	401.65	
11096-82-5	PCB 1260		675.65
110964-79-9	4-(Methylsulfonyl)-2-nitrobenzoic acid	485.65	
11097-69-1	PCB 1254		650.65
11098-05-8	Alkamon OS 2	300.65	
11099-07-3	Glyceryl stearate	333.15	
111-00-2	Ethanaminium, 2,2′-[(1,4-dioxo-1,4-butanediyl)bis(oxy)]bis[N-ethyl-N,N-dimethyl-, dibromide	431.15	
111-01-3	Squalane	235.15	623.15
111-03-5	Glycerol 1-monooleate	308.15	512.15
111-06-8	Butyl palmitate	290.05	
111-07-9	Hexadecanoic acid, 2-methoxyethyl ester	321.15	
111-10-4	9-Octadecenoic acid (9Z)-, 2-methoxyethyl ester	367.15	
111-11-5	Methyl octanoate	233.15	466.05
111-13-7	2-Octanone	257.15	445.65
111-14-8	Heptanoic acid	265.65	495.35
111-15-9	Glycol monoethyl ether acetate	211.45	429.15
111-16-0	Pimelic acid	379.15	615.15
111-17-1	Thiodipropionic acid	407.15	
111-18-2	N,N,N′,N′-Tetramethyl-1,6-hexanediamine		482.65
111-19-3	Sebacoyl chloride	270.65	
111-20-6	Sebacic acid	403.95	567.65
111-21-7	1,8-Diacetoxy-3,6-dioxaoctane	223.15	559.15
111-24-0	1,5-Dibromopentane	233.65	495.45
111-25-1	1-Bromohexane	188.45	428.45
111-26-2	Hexylamine	250.25	404.65
111-27-3	1-Hexanol	228.55	430.15
111-28-4	2,4-Hexadien-1-ol	303.65	350.65
111-29-5	1,5-Pentanediol	255.15	512.15
111-30-8	Glutaraldehyde	267.15	374.15
111-31-9	1-Hexanethiol	192.15	424.15
111-33-1	N,N′-Dimethyl-1,3-propanediamine	467.15	415.65
111-34-2	Butyl vinyl ether	181.15	367.15
111-35-3	3-Ethoxy-1-propanol	433.65	348.15
111-36-4	Butyl isocyanate		388.15
111-37-5	N1-Ethyl-N2-methyl-1,2-ethanediamine		408.15
111-39-7	N-Propylethylenediamine		428.15
111-40-0	Diethylenetriamine	234.15	480.15
111-41-1	(2-Hydroxyethyl)ethylenediamine	235.15	412.15
111-42-2	Diethanolamine	301.15	541.95
111-43-3	Propyl ether	147.05	363.15
111-44-4	Bis(2-chloroethyl) ether	221.25	451.65
111-45-5	Ethylene glycol monoallyl ether		431.65
111-46-6	Diethylene glycol	266.65	517.65
111-47-7	Propyl sulfide	170.65	416.05
111-48-8	Thiodiglycol	262.95	555.15
111-49-9	Azepane	236.15	411.15
111-50-2	Adipoyl chloride	536.15	399.15
111-51-3	N1,N1,N4,N4-Tetramethyl-1,4-butanediamine	446.65	441.15
111-55-7	Glycol diacetate	242.15	463.65
111-56-8	2-Bromododecanoic acid	305.15	
111-57-9	N-Stearoylethanolamine	376.65	
111-58-0	Oleoylethanolamide	336.65	
111-59-1	Propyl oleate	240.35	
111-60-4	Glycol monostearate	333.65	
111-61-5	Ethyl stearate	306.15	472.15
111-62-6	Ethyl oleate	248.85	470.65
111-63-7	Vinyl stearate	309.9	440.15
111-64-8	Octanoyl chloride	210.15	468.75
111-65-9	Octane	216.39	398.82
111-66-0	1-Octene	171.45	394.35
111-67-1	2-Octene	193.15	397.15
111-68-2	Heptylamine	255.15	429.15
111-69-3	Adiponitrile	275.15	568.15
111-70-6	1-Heptanol	238.55	448.95
111-71-7	Heptanal	229.85	425.95
111-74-0	N,N′-Diethylethylenediamine		419.15
111-75-1	Butylethanolamine	271.15	472.15
111-76-2	2-Butoxyethanol	198.35	441.55
111-77-3	Diethylene glycol monomethyl ether		466.15
111-78-4	1,5-Cyclooctadiene	203.65	
111-81-9	Methyl 10-undecenoate	245.65	521.15
111-82-0	Methyl laurate	278.35	540.15
111-83-1	1-Bromooctane	218.15	473.15
111-84-2	Nonane	222.15	423.95
111-85-3	1-Chlorooctane	215.35	454.65
111-86-4	Octylamine	273.15	452.75
111-87-5	1-Octanol	256.65	467.65
111-88-6	1-Octanethiol	223.95	359.15
111-89-7	1,5-Dimethoxypentane		429.65
111-90-0	Diethylene glycol monoethyl ether	197.15	469.15
111-91-1	Bis(2-chloroethoxy)methane	241.15	491.25
111-92-2	Dibutylamine	213.65	432.65
111-94-4	3,3′-Iminodipropionitrile	267.65	
111-95-5	Bis(2-methoxyethyl)amine		442.65
111-96-6	Diglyme	205.15	435.15
111-97-7	3,3′-Thiodipropionitrile	297.65	
1110-40-3	Cortivazol	502.65	
1110-46-9	2H-1,4-Benzodiazepin-2-one, 7-chloro-5-(o-fluorophenyl)-1,3-dihydro-1-[3-[4-(2-hydroxyethyl)-1-piperazinyl]propyl]-, maleate (1:2) (salt)	394.65	
111025-46-8	Pioglitazone	456.65	
111025-83-3	Vinigrol	381.15	
111038-25-6	8-Amino-7-(2,3-dihydroxypropyl)-3,7-dihydro-1,3-dimethyl-1H-purine-2,6-dione	515.65	
11104-28-2	Aroclor 1221	274.15	580.65
11104-65-7	Chromium copper oxide	1373.15	
11106-47-1	Diazene, 1-(4-ethylphenyl)-2-(4-methoxyphenyl)-, monooxide	310.15	
11106-54-0	Diazene, 1-(4-butylphenyl)-2-(4-methoxyphenyl)-, monooxide	289.15	
1111-39-3	(3β,5β)-3-[(O-3-O-Acetyl-2,6-dideoxy-β-D-ribo-hexopyranosyl-(1→4)-O-2,6-dideoxy-β-D-ribo-hexopyranosyl-(1→4)-2,6-dideoxy-β-D-ribo-hexopyranosyl)oxy]-14-hydroxycard-20(22)-enolide	492.15	
1111-44-0	Yohimban-16-carboxylic acid, 1-[2-(diethylamino)ethyl]-11,17-dimethoxy-18-[(3,4,5-trimethoxybenzoyl)oxy]-, methyl ester, (3β,16β,17α,18β,20α)-, (2R,3R)-2,3-dihydroxybutanedioate (1:1)	420.65	
1111-74-6	Dimethylsilane	123.15	253.15
1111-91-7	Germane, triiodomethyl-	322.15	
1111-92-8	Phosphinic chloride, dimethyl-	341.65	476.15
1111-97-3	3-Chloro-3-methyl-1-butyne	212.15	349.15
11113-62-5	Enniatin	394.65	
11115-82-5	Enduracidin	514.65	
11115-97-2	Iron molybdenum oxide	1243.65	
11118-72-2	Antimycin	442.15	
1112-06-7	1-Ethenyl-1,1,2,2,2-pentamethyldisilane		393.65
1112-39-6	Dimethoxydimethylsilane	193.15	355.15
1112-48-7	Bromotriethylsilane	223.15	
1112-54-5	Ethenyltriethylsilane		419.65
1112-55-6	Tetraethenylsilane		403.35
1112-56-7	Tetraethenylstannane		434.65
1112-67-0	Tetrabutylammonium chloride	326.15	
1112-77-2	Ethanaminium, N,N-diethyl-2-hydroxy-N-methyl-, iodide (1:1)	528.65	
1112-92-1	Carbamic acid, thio-, S-[2-(hydroxymethyl)-2-methylpentyl] ester, carbamate	347.65	
11120-22-2	Lead silicate	1023.15	
11122-32-0	Aluminum alloy, base, Al 87,Si 13	851.85	
111223-26-8	Ceronapril	465.65	
11128-24-8	Fluorosilylidyne		174.55
11128-29-3	Potassium pentaborate	1063.15	
1113-01-5	Dimethoate carboxylic acid	315.65	
1113-02-6	Omethoate	245.15	
1113-10-6	N-Cyano-N′-(1,1-dimethylpropyl)guanidine	429.4	
1113-12-8	Dimethyldi-2-propen-1-ylsilane		410.15
1113-14-0	Propane, 1,1′-[(1E)-1,2-ethenediylbis(sulfonyl)]bis-	426.65	
1113-21-9	Geranyllinalool		406.15
1113-41-3	L-Penicillamine	465.15	
1113-49-1	Alanine, 2-methyl-, ethyl ester	429.15	
1113-57-1	2-Methylbutanamide	394.15	
1113-59-3	Bromopyruvic acid	332.15	
1113-60-6	Hydroxypyruvic acid	475.15	
1113-68-4	N-Methyldiacetamide	248.15	468.15
1113-69-5	2-[2,2,2-Trifluoro-1-(trifluoromethyl)ethylidene]propanedinitrile		380.15
1113-74-2	2,4-Dimethyl-3-pentanone oxime	307.15	454.15
11130-24-8	Vanadium sulfide	2173.15	
11136-36-0	Bis(Pentamethylcyclopentadienyl)titanium dichloride	463.15	
11138-66-2	Xanthan gum	337.58	
1114-34-7	D-Lyxose	379.65	
1114-39-2	Guanidine, N,N-diethyl-, hydrochloride (1:1)	421.65	
1114-41-6	Muramic acid	426.15	
1114-51-8	Diethylpropionamide		464.15
1114-76-7	N,N-Diethylbutanamide		479.15
1114-81-4	Phospho-L-threonine	442.15	
1114-91-6	2,4,5,7-Octanetetrone	393.15	
1114-92-7	2,3-Diacetoxybutane	298.95	
11140-02-6	Myristin	326.15	
11140-06-0	Palmitin	334.15	
111406-87-2	Zileuton	430.65	
11141-16-5	Aroclor 1232		580.65
11141-17-6	Azadirachtin	429.65	
111470-99-6	Amlodipine besylate	451.65	
111479-05-1	Propaquizafop	335.15	
1115-01-1	Methyl 9,10-dihydroxystearate	342.65	
1115-08-8	3-Methyl-1,4-pentadiene		325.15
1115-11-3	2-Methyl-2-butenal	312.65	390.15
1115-12-4	2-Oxopropanedinitrile	237.65	338.65
1115-20-4	Hydroxypivalyl hydroxypivalate	399.15	405.65
1115-30-6	Butanedioic acid, 2-acetyl-, 1,4-diethyl ester		528.15
1115-47-5	N-Acetylmethionine	385.15	
1115-59-9	L-Alanine, ethyl ester, hydrochloride (1:1)	349.15	
1115-69-1	N-Acetylalanine	409.65	
1115-70-4	Metformin hydrochloride	505.15	
1115-84-0	Vitamin U	407.15	
1115-90-8	2-Aminoheptanoic acid	547.15	
1115-93-1	S-Propyl-L-cysteine	521.15	
1115-99-7	Triethylgallium	415.15	320.15
111523-41-2	Enloplatin	534.65	
111555-53-4	Naltrindole	543.15	
1116-22-9	L-γ-Glutamyl-L-glutamic acid	462.65	
1116-24-1	N,N-Dipropylacetamide		482.65
1116-39-8	Triisobutylboron	185.15	461.15
1116-40-1	Triisobutylamine	251.35	464.65
1116-54-7	N-Nitrosodiethanolamine	473.15	387.15
1116-61-6	Tripropylborane	217.15	432.15
1116-70-7	Tributylaluminum	246.15	
1116-73-0	Trihexylaluminum	186.15	
1116-76-3	Trioctylamine	238.55	639.15
1117-19-7	Dipropyl malonate	178.15	502.35
1117-55-1	Hexyl octanoate	242.55	550.55
1117-59-5	Hexyl valerate	210.05	499.45
1117-61-9	(+)-Citronellol	498.65	
1117-77-7	N-Acetylglycine methyl ester	331.15	
1117-86-8	1,2-Octanediol	309.15	
1117-97-1	N,O-Dimethylhydroxylamine	370.15	315.45
111753-73-2	Satigrel	397.65	
1118-00-9	1-Methoxy-2,2-dimethylpropane		345.15
1118-02-1	Trimethylsilyl isocyanate	285.4	364.15
1118-12-3	tert-Butylurea	456.15	
1118-14-5	Acetic acid, trimethylstannyl ester	470.15	
1118-15-6	1,1,3,3-Tetramethyl-1,3-disiloxanediol	340.15	
1118-46-3	Butyltin trichloride	210.15	
1118-47-4	4,4-Dimethylpentanoic acid	354.9	
1118-58-7	2-Methyl-1,3-pentadiene		348.95
1118-60-1	3-Iminobutanenitrile	333.15	
1118-66-7	4-Amino-3-penten-2-one	316.15	
1118-68-9	N,N-Dimethylglycine	455.65	
1118-69-0	Isopropylacetamide		494.9
1118-76-9	Ethyl 3-[2-(aminothioxomethyl)hydrazinylidene]butanoate	371.65	
1118-84-9	Allyl acetoacetate	188.15	469.15
1118-89-4	L-Glutamic acid, 1,5-diethyl ester, hydrochloride (1:1)	385.65	
1118-90-7	L-α-Aminoadipic acid	466.65	
111812-58-9	1,1-Dimethylethyl 4-[[[[(1,3-dimethyl-5-phenoxy-1H-pyrazol-4-yl)methylene]amino]oxy]methyl]benzoate	375.15	
111841-85-1	Abecarnil	423.65	
111850-25-0	4,4′,4′′-(1-Methyl-1-propanyl-3-ylidene)tris[2-cyclohexyl-5-methylphenol]	463.15	
1119-16-0	Isocaproaldehyde		394.15
1119-33-1	Ethyl L-glutamate	464.15	
1119-34-2	L-Arginine, monohydrochloride	495.15	
1119-40-0	Dimethyl glutarate	230.65	367.15
1119-44-4	3-Hepten-2-one		430.15
1119-46-6	5-Chloropentanoic acid	291.15	503.15
1119-49-9	N-Butylacetamide	386.15	502.15
1119-51-3	5-Bromo-1-pentene		398.65
1119-60-4	6-Heptenoic acid	266.65	499.15
1119-62-6	3,3′-Dithiodipropionic acid	429.65	
1119-65-9	2-Heptyne		385.15
1119-74-0	1,6-Dioctadecyl hexanedioate	336.55	
1119-85-3	3-Hexenedinitrile	348.15	410.65
1119-86-4	1,2-Decanediol	321.65	
1119-87-5	1,2-Dodecanediol	333.65	
1119-88-6	1-Bromo-1-octene		452.15
1119-94-4	Dodecyltrimethylammonium bromide	502.15	
1119-97-7	Tetradecyltrimethylammonium bromide	520.65	
111900-32-4	ACPD	521.15	
111902-57-9	Temocapril	441.15	
111969-64-3	(1R,2S,5R)-5-Methyl-2-(1-methylethyl)cyclohexyl 2,2-dihydroxyacetate	353.65	
111974-69-7	Quetiapine	445.65	
111988-43-3	N-[1-[(6-Chloro-3-pyridinyl)methyl]-4,5-dihydro-1H-imidazol-2-yl]cyanamide	427.15	
111988-49-9	Thiacloprid	401.65	
111991-09-4	Nicosulfuron	415.15	
112-00-5	Dodecyltrimethylammonium chloride	310.15	
112-02-7	Hexadecyltrimethylammonium chloride	343.15	
112-04-9	Trichlorooctadecylsilane	295.15	496.15
112-05-0	Nonanoic acid	285.65	525.65
112-06-1	Heptyl acetate	222.95	466.15
112-07-2	Glycol monobutyl ether acetate	209.15	465.45
112-10-7	Isopropyl stearate	301.15	480.15
112-11-8	Isopropyl oleate	235.45	
112-12-9	2-Undecanone	288.15	504.65
112-13-0	Decanoyl chloride	238.65	368.15
112-14-1	Octyl acetate	234.65	483.15
112-15-2	Carbitol acetate	248.15	491.65
112-16-3	Dodecanoyl chloride	256.15	
112-17-4	Decyl acetate	258.15	517.15
112-18-5	Lauryldimethylamine	295.15	533.15
112-20-9	Nonylamine	272.15	475.35
112-23-2	Heptyl formate		451.25
112-24-3	Triethylenetetramine	285.15	539.65
112-25-4	Glycol monohexyl ether	228.05	481.15
112-26-5	1,2-Bis(2-chloroethoxy)ethane	241.65	514.45
112-27-6	Triethylene glycol	266.15	438.15
112-29-8	1-Bromodecane	243.95	513.75
112-30-1	1-Decanol	279.55	506.05
112-31-2	Decanal	268.15	481.65
112-32-3	Octyl formate	234.05	471.95
112-34-5	Diethylene glycol monobutyl ether	205.05	503.55
112-35-6	Triethylene glycol monomethyl ether	229.15	522.15
112-36-7	Diethylene glycol diethyl ether	229.15	461.15
112-37-8	Undecanoic acid	301.75	553.15
112-38-9	Undecylenic acid	297.65	548.15
112-39-0	Methyl palmitate	303.15	690.15
112-40-3	Dodecane	263.55	489.45
112-41-4	1-Dodecene	237.95	486.95
112-42-5	1-Undecanol	292.15	516.15
112-43-6	10-Undecen-1-ol	271.15	523.15
112-44-7	Undecanal	269.15	375.15
112-46-9	9-Undecen-1-ol	279.15	521.65
112-47-0	1,10-Decanediol	347.15	344.65
112-48-1	Glycol dibutyl ether	204.15	476.75
112-49-2	Triglyme	228.15	489.15
112-50-5	Triethylene glycol monoethyl ether	254.45	528.55
112-51-6	Dipentyl disulfide	401.65	392.15
112-52-7	1-Chlorododecane	263.85	533.15
112-53-8	1-Dodecanol	297.15	532.15
112-54-9	Dodecanal	317.65	458.15
112-55-0	1-Dodecanethiol	266.15	416.65
112-57-2	Tetraethylenepentamine	243.15	613.45
112-58-3	Dihexyl ether		496.15
112-59-4	Diethylene glycol monohexyl ether	233.15	532.25
112-60-7	Tetraethylene glycol	266.95	600.15
112-61-8	Methyl stearate	312.25	716.15
112-62-9	Methyl oleate	253.25	491.65
112-63-0	Methyl linoleate	238.15	488.15
112-64-1	Tetradecanoyl chloride	272.15	
112-66-3	Dodecyl acetate	274.45	538.15
112-67-4	Palmitoyl chloride	284.65	
112-70-9	1-Tridecanol	305.65	425.15
112-71-0	1-Bromotetradecane	278.75	580.15
112-72-1	1-Tetradecanol	312.65	562.15
112-73-2	Diethylene glycol dibutyl ether	213.15	529.15
112-76-5	Stearoyl chloride	296.15	
112-79-8	Elaidic acid	318.15	
112-80-1	Oleic acid	289.45	559.15
112-82-3	1-Bromohexadecane	291.15	609.15
112-84-5	Erucamide	350.65	
112-85-6	Docosanoic acid	353.1	
112-86-7	Erucic acid	306.95	538.15
112-88-9	1-Octadecene	290.65	418.15
112-89-0	1-Bromooctadecane	301.35	483.15
112-90-3	Oleylamine	263.65	
112-91-4	Oleonitrile	272.15	605.65
112-92-5	Stearyl alcohol	332.65	483.65
112-95-8	Eicosane	309.95	616.15
112-96-9	Octadecyl isocyanate	288.65	
112-99-2	Dioctadecylamine	363.65	
1120-00-9	3-(Dodecylamino)-1-propanesulfonic acid	552.65	
1120-02-1	Octadecyltrimethylammonium bromide	508.15	
1120-07-6	Nonanamide	372.65	
1120-10-1	9-Chlorononanoic acid	302.65	
1120-12-3	9-Aminononanoic acid	389.65	
1120-16-7	Dodecanamide	383.15	
1120-21-4	Undecane	247.55	469.05
1120-23-6	1-[2-(2-Chloroethoxy)ethoxy]butane		470.65
1120-25-8	Methyl palmitoleate	307.05	
1120-28-1	Methyl eicosanoate	327.65	488.15
1120-34-9	Methyl erucate	273.17	494.65
1120-36-1	1-Tetradecene	261.15	506.15
1120-48-5	Dioctylamine	308.65	570.65
1120-49-6	Didecylamine	320.65	
1120-53-2	1,3-Cyclobutadiene	422.65	
1120-56-5	Methylenecyclobutane	138.45	315.35
1120-57-6	Chlorocyclobutane	428.65	
1120-59-8	2,3-Dihydrothiophene	162.95	385.25