CAS	name	Tm	Tb
13252-15-8	2,4,4,5,7,7,8,10,10,11,13,13,14,16,16,17,17,18,18,18-Eicosafluoro-2,5,8,11,14-pentakis(trifluoromethyl)-3,6,9,12,15-pentaoxaoctadecanoyl fluoride		475.15
13253-44-6	5-[2-(Methylthio)ethyl]-2,4-imidazolidinedione	390.65	
132539-06-1	Olanzapine	468.15	
13254-04-1	N-[(Phenylmethoxy)carbonyl]-L-isoleucylglycine	318.65	
13254-07-4	N-[(Phenylmethoxy)carbonyl]-L-isoleucyl-L-phenylalanine	439.65	
13254-33-6	Carpronium chloride	399.15	
13254-34-7	2,6-Dimethyl-2-heptanol		446.15
13256-22-9	N-Nitrososarcosine	339.65	
13257-51-7	Acetic acid, 2,2,2-trifluoro-, mercury(2+) salt (2:1)	439.15	
13258-63-4	4-Pyridineethanamine	388.65	394.15
13259-75-1	2-Methyl-1,1-dipropoxypropane		443.15
13260-75-8	2-Ethenyl-5,5-dimethyl-1,3-dioxane	322.65	
132605-20-0	2,3,5,6,7,8-Hexahydro-3,5-dimethyl-2-thioxo[1]benzothieno[2,3-d]pyrimidin-4(1H)-one	499.15	
13261-62-6	N,N-Dimethyl-9H-fluoren-2-amine	452.15	
13262-48-1	N-[1,1′-Biphenyl]-4-ylurea	472.15	
13264-92-1	2-Nitrophenyl 2-(acetylamino)-2-deoxy-β-D-glucopyranoside	449.65	
13265-84-4	D-(+)-Glucal	331.15	
13266-07-4	Tripropylplumbyl acetate	399.65	
13267-55-5	Methanaminium, N,N-dimethyl-N-[[(methylsulfonyl)methyl]sulfonyl]-, inner salt	401.15	
13269-19-7	2-Nitro-3-pyridinamine	455.15	
13269-35-7	(R)-Atropine	379.15	
13269-52-8	trans-3-Hexene	157.75	340.25
13269-73-3	3-Methyl-1-(3′-sulfoamidophenyl)-5-pyrazolone	510.15	
13269-74-4	Dimethylthioxostannane	422.15	
13269-86-8	1,1′-Oxybis[1,2,2-trifluoroethene]		308.65
1327-36-2	Aluminatesilicate	1753.15	
1327-50-0	Antimony telluride (Sb2Te3)	873.15	1446.95
1327-53-3	Arsenic trioxide	567.15	733.15
13274-42-5	Caldopentamine	400.65	
13275-42-8	2-(2-Bromophenyl)-1H-benzimidazole	519.15	
13276-08-9	N-Octadecyloctadecanamide	368.65	
13278-32-5	2-(2-Methoxyphenylamino)benzoic acid	448.15	
13278-36-9	2-[(3-Chlorophenyl)amino]benzoic acid	440.65	
13278-80-3	Diethyl-μ-thioxodimercury	376.15	
13279-06-6	N-[4-(Dimethylamino)phenyl]octadecanamide	375.15	
13279-22-6	Phenyl-N-carbamoylaziridine	355.65	
13279-58-8	4-(Acetylamino)-2,5-dimethoxybenzenesulfonyl chloride	434.65	
13279-87-3	1,1,3-Trichlorobutane		425.15
13280-61-0	Bis-MSB	451.65	
13282-14-9	Guanidine, N,N′′′-1,2-ethanediylbis-, hydrochloride (1:2)	502.15	
13282-37-6	Zinc butyrate	429.65	
13283-01-7	Tungsten hexachloride	556.15	609.65
13283-31-3	Borane	215.15	326.15
13284-97-4	1,1′-Sulfinylbis[cyclohexane]	358.94	
132843-44-8	Lithium bis(pentafluoroethanesulfonyl)imide	601.15	
13286-24-3	Thiosulfuric acid (H2S2O3), S-(3-aminopropyl) ester	462.65	
13286-91-4	2-(Methylthio)pentane		409.15
13287-49-5	(4-Nitrophenyl)methyl thiocyanate	358.65	
13287-76-8	2-[(4-Nitrophenyl)thio]ethanol	359.15	
13288-70-5	4,4′-Sulfonylbis[2,6-dimethylphenol]	577.65	
13289-18-4	Hellebrin	556.65	
13289-20-8	Olitoriside	477.65	
1329-76-6	Card-20(22)-enolide, 3-[(O-2,6-dideoxy-β-D-ribo-hexopyranosyl-(1→4)-O-2,6-dideoxy-β-D-ribo-hexopyranosyl-(1→4)-2,6-dideoxy-β-D-ribo-hexopyranosyl)oxy]-14,16-dihydroxy-, monoacetate, (3β,5β,16β)-	520.65	
13290-16-9	2-[(4-Methylphenyl)thio]ethanol		555.65
13290-74-9	1-Chloro-2-methyl-4-nitrobenzene	315.65	522.15
13290-96-5	Dimethyl 5-nitroisophthalate	392.65	
13291-96-8	Benzeneacetic acid, α-[(3-methoxy-1-methyl-3-oxo-1-propen-1-yl)amino]-, sodium salt (1:1), (αR)-	518.65	
13292-22-3	3-Formylrifamycin	455.65	
13292-46-1	Rifampicin	457.65	
13293-59-9	3-Methylcyclohexanecarboxylic acid	387.15	
13294-71-8	2-Bromo-2-butene	158.5	368.15
13296-76-9	Eleostearic acid	344.15	
13296-94-1	2-Bromo-4-nitrobenzenamine	377.65	
13297-17-1	Mequindox	426.65	
13297-18-2	2-Ethoxycarbonyl-3-methylquinoxaline 1,4-dioxide	408.65	
13299-97-3	α-Hydroxy-α-methyl-γ-oxobenzenebutanoic acid	403.15	
133-06-2	Captan	451.15	
133-07-3	Folpet	450.15	
133-08-4	1,3-Diethyl 2-butylpropanedioate	511.15	510.65
133-10-8	Sodium p-aminosalicylate	540.65	
133-11-9	Phenyl 4-aminosalicylate	426.15	
133-13-1	1,3-Diethyl 2-ethylpropanedioate	475.15	481.15
133-14-2	2,4-Dichlorobenzoyl peroxide	379.15	
133-21-1	3a,4,5,6,7,7a-Hexahydro-4,7-methano-1H-inden-5-ol	370.65	
133-26-6	Peucedanin	358.15	
133-32-4	Indole-3-butyric acid	397.65	
133-37-9	dl-Tartaric acid	479.15	
133-38-0	Dihydroxyfumaric acid	427.15	
133-47-1	1,4-Dimethyl (2E)-2,3-dihydroxy-2-butenedioate	447.65	
133-49-3	Pentachlorothiophenol	513.15	
133-53-9	2,4-Dichloro-3,5-dimethylphenol	368.65	
133-55-1	N,N′-Dimethyl-N,N′-dinitrosoterephthalamide	381.15	
133-59-5	2-Methylbenzenesulfonyl chloride	283.35	
133-63-1	2,2′-Methylenebis[6-(1,1-dimethylethyl)phenol]	378.65	
133-67-5	Trichlormethiazide	543.15	
133-90-4	Chloramben	473.65	585.15
133-91-5	3,5-Diiodosalicylic acid	508.65	
1330-16-1	Pinene	216.15	429.65
1330-20-7	Xylene	444.65	411.65
1330-43-4	Sodium tetraborate	1014.15	
1330-61-6	Isodecyl acrylate	173.15	
1330-70-7	Hydroxyoctadecanoic acid	363.15	
1330-78-5	Tricresyl phosphate	240.15	693.15
1330-86-5	Diisooctyl adipate	203.15	
1330-96-7	1,2-Benzenedicarboxylic acid, 1-isodecyl 2-octyl ester	371.15	720.15
13300-09-9	4-Methyl-6-phenyl-3(2H)-pyridazinone	462.15	
13301-61-6	Disperse Orange 37	418.15	
13302-00-6	(2-Ethylhexanoato-κO)phenylmercury	345.65	
13302-67-5	1,2,4-Naphthalenetriol	426.65	
13303-10-1	1,1-Dimethylethyl 4-nitrophenyl carbonate	352.15	
13304-62-6	N-Benzylacrylamide	342.15	
133040-01-4	Eprosartan	533.65	
133052-90-1	3-[1-[3-(Dimethylamino)propyl]-1H-indol-3-yl]-4-(1H-indol-3-yl)-1H-pyrrole-2,5-dione	553.15	
133066-42-9	1,4-Benzenedicarboxylic acid, polymer with 1,4-cyclohexanedicarboxylic acid and 1,6-hexanediol	408.15	
13307-05-6	1-Chloro-N,N,N′,N′,N′′,N′′-hexamethylsilanetriamine	276.15	
13307-67-0	Ethyl 1H-indole-1-carboxylate	392.65	
13308-13-9	1,2,3,4-Butanetetrol, 1,4-dimethanesulfonate, (R*,S*)-	396.15	
1331-22-2	Methylcyclohexanone		437.15
1331-39-1	Trimethylhexanol		456.65
1331-81-3	Anisyl alcohol	296.85	415.15
13310-75-3	2-Propylpentanenitrile		456.65
13311-57-4	N-Cyclohexyl-1-aziridinecarboxamide	354.65	
13311-72-3	4-Bromo-2,3,6-trichlorophenol	347.15	
13311-84-7	Flutamide	383.65	
13313-45-6	3-(Methylthio)-N-phenylbenzenamine	333.15	
13314-51-7	Triethyliodogermane		485.45
13314-52-8	Dichlorodiethylgermane	234.15	448.15
13314-85-7	2-Methyl-1H-indol-5-ol	461.15	
13314-97-1	1-(4-Morpholinylmethyl)-2,5-pyrrolidinedione	384.65	
13315-23-6	4-Methyl-5-pyrazolone	499.65	
13316-70-6	Cetyltriethylammonium bromide	423.15	
1332-07-6	ZB 500	1253.15	
1332-81-6	Antimony tetroxide	1203.15	
13322-69-5	5-Phenyl[1,2,4]triazolo[1,5-a]pyrimidin-7-ol	566.65	
13323-66-5	2′,4-Dihydroxychalcone	440.15	
13323-67-6	3,2′,4′-Trihydroxy-4-methoxychalcone	472.65	
13324-11-3	Benzoic acid, 2-chloro-4-nitro-, methyl ester	349.25	
13324-66-8	N-Cyclopropylbenzenemethanamine	370.9	
13325-10-5	4-Amino-1-butanol		475.15
13327-27-0	6-Methyl-3(2H)-pyridazinone	411.15	
13327-32-7	Beryllium hydroxide	378.15	
13327-36-1	5-(Phenylmethylene)-2(5H)-furanone	359.15	
13329-40-3	4-Iodoacetophenone	359.15	
1333-07-9	Toluenesulfonamide	466.15	
1333-13-7	(1,1-Dimethylethyl)-3-methylphenol	295.15	508.15
1333-16-0	Methylenebis[phenol]	421.15	
1333-17-1	Tetramethyldecynediol	310.65	533.15
1333-38-6	Angelica lactone	291.15	483.15
1333-47-7	Methylcoumarin	362.15	
1333-52-4	Acetylnaphthalene	324.15	
1333-53-5	Isopropylquinoline	346.9	
1333-74-0	Hydrogen	13.95	20.38
1333-78-4	Potassium antimonate	1683.15	
1333-82-0	Chromium trioxide	470.15	
1333-86-4	Carbon black	3823.15	4473.15
13331-27-6	3-Nitrophenylboronic acid	557.15	
13331-52-7	Tributyltin acrylate	342.65	
13331-93-6	2,6-Dimethyl-4-nitrosophenol	443.65	
13333-91-0	3,6-Dimethyl-9H-xanthene	468.15	
133331-77-8	Perfluorohexyloctane	278.11	613.15
13334-49-1	2-(2,4-Dimethylphenoxy)acetic acid	413.65	
133343-34-7	Lactacystin	507.15	
13335-73-4	2-(3,4-Dimethylphenoxy)acetic acid	435.65	
13337-64-9	3-Quinolinecarboxylic acid, 1,4,5,6,7,8-hexahydro-2,7,7-trimethyl-5-oxo-4-phenyl-, ethyl ester	489.65	
13338-63-1	(3,4,5-Trimethoxyphenyl)acetonitrile	350.15	
13339-02-1	2-(1-Piperazinyl)benzenamine	387.15	
1334-78-7	Methylbenzaldehyde		478.15
133407-82-6	N-[(Phenylmethoxy)carbonyl]-L-leucyl-N-[(1S)-1-formyl-3-methylbutyl]-L-leucinamide	355.15	
133408-50-1	Metominostrobin	361.15	
13343-95-8	1-(2-Furanyl)-3-(2-thienyl)-2-propen-1-one	347.65	
13343-98-1	1-(2-Methoxyethoxy)butane		418.15
13345-09-0	6-Phenyl-2,4(1H,3H)-pyrimidinedione	502.15	
13345-21-6	3-Hydroxybenzo[a]pyrene	499.65	
13345-26-1	8-Hydroxybenzo[a]pyrene	499.65	
13345-61-4	12-Methylbenz[a]anthracene-7-carboxaldehyde	385.15	
13345-64-7	7,8,12-Trimethylbenz[a]anthracene	400.65	
13347-41-6	9H-Xanthene-9-carboxylic acid, 2-[bis(1-methylethyl)amino]ethyl ester	311.4	
13347-42-7	2-Cyclopentyl-4-chlorophenol		456.15
1335-32-6	Lead acetate (Pb3(AcO)2(OH)4)	348.15	
1335-40-6	Ethyl furoate	322.15	
1335-47-3	Ditolylmethane		562.15
1335-86-0	Methylcyclohexene		378.15
1335-87-1	Hexachloronaphthalene	410.15	639.15
1335-88-2	Tetrachloronaphthalene	388.15	608.9
13351-10-5	2′,4′-Dihydroxy-4-methoxychalcone	459.15	
13351-61-6	2,2-Dimethyl-3-phenylpropanol	307.65	
13351-73-0	1-Methylbenzotriazole	337.65	543.65
13352-70-0	Ethanamine, 2-[[1-(4-chlorophenyl)cyclohexyl]oxy]-N,N-diethyl-, hydrochloride (1:1)	417.15	
13354-35-3	1-(Phenylthio)-9,10-anthracenedione	458.15	
13355-96-9	Butyltin chloride dihydroxide	382.65	
13356-08-6	Fenbutatin oxide	411.65	
1336-36-3	1,1′-Biphenyl, chloro derivs.	630.65	
13360-45-7	Chlorbromuron	369.15	
13360-52-6	β-Cellobiose	500.15	
13360-61-7	1-Pentadecene	270.35	541.35
13360-63-9	Ethylbutylamine	195.15	380.65
13360-65-1	3-Ethyl-2,5-dimethylpyrazine		453.65
133605-27-3	2-Nitro-4-(trifluoromethyl)benzenemethanol	338.15	
13361-63-2	4,4-Dimethyl-1-pentyne	197.47	349.23
13361-64-3	Trimethyl-2-propyn-1-ylsilane	422.65	
13361-67-6	N,N,1,1,1-Pentamethylgermanamine	376.15	376.15
13362-33-9	2-Methyl-2,5-cyclohexadiene-1,4-dione 4-oxime	430.15	
13362-77-1	3-Pyridinecarboxaldehyde, 2-(3-pyridinylmethylene)hydrazone	417.65	
13362-78-2	trans-1,2-Bis(4-pyridyl)ethylene	422.65	
13362-80-6	4,8-Dimethylquinoline	327.65	
133627-24-4	11-Cyclopropyl-5,11-dihydro-4-(hydroxymethyl)-6H-dipyrido[3,2-b:2′,3′-e][1,4]diazepin-6-one	517.15	
133627-45-9	3-amino-2-chloro-4-methylpyridine	334.15	
13364-32-4	Clobenzorex		406.15
13365-26-9	1,2-Benzenedicarboxylic acid, 3-nitro-, 1,2-dimethyl ester	341.15	
13368-42-8	4-(Trimethylsilyl)morpholine		433.15
13368-45-1	1-Ethenyl-N,N,N′,N′,1-pentamethylsilanediamine		419.65
13368-65-5	(+)-3-Methylcyclohexanone		438.15
1337-89-9	Glyceryl abietate	353.15	
13370-79-1	2-Formylpyridine semicarbazone	472.15	
13370-80-4	2-(3-Pyridinylmethylene)hydrazinecarboxamide	486.65	
13371-17-0	Phosphonium, butyltriphenyl-, chloride (1:1)	494.15	
13371-73-8	2-(Cyclohexylphenylamino)ethanol	338.65	
13372-18-4	1,2-Benzenedicarboxylic acid, 1,2-dihexadecyl ester	334.65	
13372-76-4	Dodecanal, oxime	346.15	
13372-80-0	4-(1-Methylethyl)benzaldehyde oxime	349.15	
13372-81-1	3-Phenyl-2-propenal oxime	409.15	
13373-32-5	2-Isopropyl-4-nitroimidazole	453.15	
13373-97-2	1-Eicosanethiol	304.15	
13379-35-6	1-Hydroxy-3,7-dimethoxyxanthone	440.15	
13379-87-8	Tiprenolol hydrochloride	399.15	
1338-23-4	Methyl ethyl ketone peroxide		292.15
1338-41-6	Sorbitan monooctadecanoate	330.15	
13380-89-7	Octahydro-4,7-methano-1H-inden-5-ol	393.65	
13380-90-0	5-Ethenyloctahydro-4,7-methano-1H-inden-5-ol	317.25	
13382-27-9	Galactonic acid	420.65	
13382-43-9	5-Amino-2-methylbenzothiazole	375.15	
13383-63-6	1-(2,4,6-Trihydroxy-3,5-dimethylphenyl)ethanone	494.15	
13385-66-5	4-Thiazolidinecarboxylic acid, 5,5-dimethyl-2-(1-methylethyl)-, hydrochloride (1:1)	484.15	
13389-42-9	trans-2-Octene	185.45	398.15
13391-28-1	5-Methoxybenzofuran	305.65	
13392-26-2	2-(3,4-Dihydroxyphenyl)-3,4-dihydro-2H-1-benzopyran-3,5,7-triol	513.15	
13393-61-8	Dibutylhydroxylamine	325.9	
13393-93-6	(1R,4aR,4bS,10aR)-Tetradecahydro-1,4a-dimethyl-7-(1-methylethyl)-1-phenanthrenemethanol	306.65	
13395-02-3	Aristolactam	592.15	
13395-16-9	Copper(II) acetylacetonate	554.15	
13395-71-6	2,4,4-Trimethyl-2-cyclohexen-1-one	431.15	
13395-76-1	2,3-Dimethylcyclohexanone		351.15
13397-24-5	Gypsum (Ca(SO4).2H2O)	373.15	
13397-26-7	Calcite	935.15	
134-03-2	Sodium ascorbate	493.15	508.15
134-09-8	Menthyl anthranilate		451.15
134-11-2	2-Ethoxybenzoic acid	293.85	
134-19-0	2-Methoxy-5-methyl-4-nitrobenzenamine	404.65	
134-20-3	Methyl anthranilate	297.65	529.15
134-29-2	o-Anisidine, hydrochloride	502.15	
134-31-6	Hydroxyquinoline sulfate	450.65	
134-32-7	1-Naphthylamine	322.35	573.85
134-36-1	Erythromycin propionate	397.15	
134-37-2	Amphenidone	456.15	
134-38-3	5-(5-Methyl-1,3-dioxan-4-yl)-1,3-benzodioxole	313.15	
134-52-1	4-Phenylresorcinol	418.15	
134-53-2	Benzeneacetic acid, α-(hydroxymethyl)-, 3-(diethylamino)-2,2-dimethylpropyl ester, phosphate (1:1) (salt)	416.65	
134-55-4	Phenyl acetylsalicylate	369.15	471.15
134-58-7	Azaguanine	573.15	
134-62-3	N,N-Diethyl-m-toluamide	228.15	
134-63-4	(-)-Lobeline hydrochloride	452.15	
134-71-4	DL-Ephedrine hydrochloride	407.15	
134-72-5	(-)-Ephedrine sulfate	518.15	
134-80-5	Diethylpropion hydrochloride	441.15	
134-81-6	Benzil	367.95	620.15
134-84-9	4-Methylbenzophenone	332.65	
134-85-0	4-Chlorobenzophenone	351.15	
134-90-7	(+)-Chloramphenicol	423.65	
134-91-8	4-(Diethylamino)-α-[4-(diethylamino)phenyl]benzenemethanol	351.9	
134-92-9	(4-Hydroxyphenyl)(4-methylphenyl)methanone	448.15	
134-96-3	Syringaldehyde	386.15	
134-98-5	N-(2,3-Dimethylphenyl)acetamide	408.65	
13401-56-4	3-Chloro-2,2-dimethylpropanol	308.15	
13401-64-4	(6aR,12aR)-6a,12a-Dihydro-6H-[1,3]dioxolo[5,6]benzofuro[3,2-c]furo[3,2-g][1]benzopyran	498.15	
13402-02-3	Hexadecyl acrylate	297.15	
13402-08-9	N-[(Acetylamino)carbonyl]-α-ethylbenzeneacetamide	373.65	
13402-51-2	S-(Phenylmethyl) benzenecarbothioate	309.65	
13402-96-5	2-[2,4-Bis(1,1-dimethylpropyl)phenoxy]acetic acid	389.65	
13403-01-5	2-[2,4-Bis(1,1-dimethylpropyl)phenoxy]butanoic acid	350.15	
13403-24-2	4,6-O-Ethylidene-D-glucose	453.15	
13404-22-3	L-Alanine tert-butyl ester hydrochloride	441.15	
13404-88-1	Carbamothioic acid, 1H-benzimidazol-2-yl-, O-ethyl ester	475.15	
13407-16-4	α-(Chloromethyl)-4-nitrobenzenemethanol	352.65	
13407-95-9	5,8,13,13a-Tetrahydro-2,3,10,11-tetramethoxy-6H-dibenzo[a,g]quinolizine	431.65	
13408-73-6	Cobalt(3+), tris(1,2-ethanediamine-κN1,κN2)-, chloride (1:3), (OC-6-11)-	563.65	
1341-49-7	Ammonium bifluoride	398.75	513.15
1341-81-7	D-Mannitol, anhydro-, monohexadecanoate	316.65	
13411-16-0	Nifurpirinol	443.65	
134111-33-4	4′-Thiothymidine	486.15	
13414-55-6	2,3-Dihydro-2,2-dimethyl-7-nitrobenzofuran	339.15	
13414-95-4	6,7-Dihydrobenzo[b]thiophen-4(5H)-one	309.4	
13417-01-1	N-[3-(Dimethylamino)propyl]perfluorooctylsulfonamide	391.15	
13417-43-1	1-Chloro-2-methyl-2-butene		383.15
13417-49-7	5,6-Dihydro-2H-pyran-3-carboxaldehyde		322.35
13418-49-0	4,11-Diamino-2,3-dihydro-3-imino-2-(3-methoxypropyl)-1H-naphth[2,3-f]isoindole-1,5,10-trione	470.65	
13419-46-0	S-[(1E)-1,2-Dichloroethenyl]-L-cysteine	428.65	
13419-69-7	trans-2-Hexenoic acid	304.15	
13420-58-1	2-[(3-Chlorophenyl)thio]benzoic acid	466.15	
13421-13-1	4-Chloro-2-iodobenzoic acid	435.15	
13422-90-7	N-Butyl-N-(2-chloroethyl)-1-butanamine	358.9	
13423-15-9	3-Methyltetrahydrofuran		359.65
13423-47-7	1,3-Benzenediol, compd. with 1,3,5,7-tetraazatricyclo[3.3.1.13,7]decane (1:1)	435.65	
13423-48-8	Phosphonium, heptyltriphenyl-, bromide (1:1)	443.15	
13423-60-4	1-Phenyl-1H-1,2,4-triazole	320.15	542.15
13423-73-9	4-Hydroxy-3,5-bis(1-methylethyl)benzoic acid	414.15	
13424-80-1	N1,N1,N5,N5-Tetramethylpentanediamide	323.15	
13425-39-3	3-Pyridinecarboxylic acid, 2-(1,2,3,6-tetrahydro-1,3-dimethyl-2,6-dioxo-7H-purin-7-yl)ethyl ester	424.65	
13425-53-1	Phenol, 4,4′-(1,2-diethyl-1,2-ethenediyl)bis-, 1,1′-bis(dihydrogen phosphate)	478.15	
13425-98-4	Improsulfan	388.65	
13426-94-3	Methylbenzylamine hydrochloride	450.65	
13429-10-2	N-(2-Hydroxy-4-methylphenyl)acetamide	442.65	
13429-24-8	1-Propene, 1,1,2,3,3,3-hexafluoro-, dimer		329.15
13429-83-9	(1S,4R)-4,7,7-Trimethyl-3-oxo-2-oxabicyclo[2.2.1]heptane-1-carboxylic acid	472.65	
134308-13-7	Tolcapone	415.15	
13431-34-0	Ethylthiosemicarbazide	356.9	
13431-39-5	N-(1,1-Dimethylethyl)hydrazinecarbothioamide	415.65	
13431-41-9	4-Benzylthiosemicarbazide	403.15	
13432-32-1	1-Amino-2,4-dichloro-9,10-anthracenedione	478.65	
13433-00-6	Propanedioic acid, 2-amino-, 1,3-diethyl ester, hydrochloride (1:1)	435.15	
134336-96-2	3-[(4-Phenyl-1-piperazinyl)methyl]oxazolo[4,5-b]pyridin-2(3H)-one	424.65	
13434-12-3	N-(3-Methylbutyl)acetamide		495.15
13434-13-4	Actinonin	421.65	
13435-09-1	1,1-Dimethyl-N,N′-diphenylsilanediamine	329.15	
13435-12-6	Trimethylsilylacetamide	320.65	
13435-20-6	Tetraethylammonium cyanide	513.15	
13436-45-8	Tetrahydro-2-methoxyfuran		379.15
13436-58-3	2-Methyl-7-nitro-2H-indazole	416.15	
13437-03-1	1,2,4-Trichloro-7-nitro-3H-phenoxazin-3-one	511.15	
13437-79-1	1-Phenylethylamine hydrochloride	421.15	
13438-30-7	5-Nitro-1,3-benzenedicarbonyl dichloride	339.65	
134381-30-9	N-(3,5-Dideoxy-3-methyl-D-xylonoyl)-2-methyl-L-serine	427.15	
1344-08-7	Sodium polysulfide	673.15	
1344-28-1	Alumina	2273.15	3253.15
1344-43-0	Manganese oxide (MnO)	2113.15	
1344-48-5	Mercury sulfide (HgS)	433.15	
1344-57-6	Uranium oxide (UO2)	3138.15	
1344-70-3	Copper oxide (CuOx)	350.15	
1344-95-2	Calcium silicate	1813.15	
13440-13-6	1,4-Butanediaminium, N1,N1,N1,N4,N4,N4-hexamethyl-, bromide (1:2)	593.15	
13442-09-6	4-Quinolinamine, N-hydroxy-7-methyl-, 1-oxide	478.15	
13444-24-1	1-Ethyl-3-piperidinol		367.15
13444-85-4	Nitrogen iodide (NI3)	195.15	
13444-87-6	Nitrosyl bromide ((NO)Br)		270.15
13444-90-1	Nitryl chloride	124.15	258.15
13445-63-1	Itramin tosylate	405.65	
13446-08-7	Fluorosulfuric acid, ammonium salt	518.15	
13446-18-9	Magnesium nitrate hexahydrate	362.15	420.15
13446-49-6	Potassium molybdate	1193.15	
13446-74-7	Rubidium fluoride	1053.15	
13448-22-1	Octoclothepin	373.15	
1345-04-6	Antimony sulfide (Sb2S3)	823.15	1286.15
1345-07-9	Bismuth sulfide (Bi2S3)	958.15	
1345-13-7	Cerium oxide (Ce2O3)	1965.15	
1345-25-1	Ferrous oxide	1633.15	
13450-37-8	2-(3-Chlorobenzoyl)benzoic acid	423.65	
13450-77-6	N-(4-Chlorobenzoyl)glycine	416.15	
13450-88-9	Gallium bromide	395.65	552.15
13450-90-3	Gallium chloride	351.05	474.15
13450-91-4	Gallium iodide	485.15	618.15
13450-92-5	Tetrabromogermane	299.25	459.65
13450-95-8	Tetraiodogermane	419.15	
13451-05-3	Strontium tungsten oxide (SrWO4)	1763.15	
13451-11-1	Tantalum bromide (TaBr5)	538.15	621.65
13452-77-2	Methylmelamine	532.65	
134523-00-5	Atorvastatin	448	
13453-07-1	Gold trichloride	375.65	538.15
13453-49-1	Thorium bromide (ThBr4)	951.15	
13453-71-9	Lithium chlorate	400.95	
13454-83-6	Nitrous acid, cesium salt (1:1)	648.15	
13454-96-1	Platinum tetrachloride	600.15	
13455-00-0	Hypodiphosphorous tetraiodide	396.65	
13455-01-1	Phosphorous triiodide	334.15	
13455-15-7	Platinum fluoride (PtF4), (SP-4-1)-	251.15	
13455-33-9	Silicic acid (H4SiO4), cobalt(2+) salt (1:2)	1693.15	
13456-80-9	3-Aminobenzanthrone	519.15	
13457-18-6	Pyrazophos	324.15	
13458-81-6	4-[2-(2-Chloro-4-nitrophenyl)diazenyl]-2,4-dihydro-5-methyl-2-phenyl-3H-pyrazol-3-one	510.15	
13460-50-9	Boric acid (HBO2)	440.65	1663.15
13461-16-0	1,3-Dimethyl-2-imidazolidinethione	384.15	
13462-90-3	Nickel iodide (NiI2)	1053.15	
13463-26-8	5-[[(4-Chlorophenyl)sulfonyl]amino]-1,3,4-thiadiazole-2-sulfonamide	543.65	
13463-28-0	Eriocitrin	432.15	
13463-39-3	Nickel tetracarbonyl	253.85	316.15
13463-40-6	Iron pentacarbonyl	252.15	375.95
13463-41-7	Pyrithione zinc	513.15	
13463-67-7	Titania	2116.15	3023.15
13464-24-9	4,4′-(1,1-Dimethyl-3-methylene-1,3-propanediyl)bis[phenol]	403.15	
13464-37-4	Sodium arsenite (Na3AsO3)	593.15	
13464-38-5	Sodium arsenate (Na3AsO4)	1663.15	
13464-46-5	Americium chloride (AmCl3)	991.15	
13464-97-6	Hydrazinium nitrate	343.15	
13465-10-6	Indium chloride (InCl)	489.15	
13465-11-7	Indium chloride (InCl2)	508.15	843.15
13465-66-2	Selenium fluoride (SeF4), (T-4)-	259.95	373.15
13465-73-1	Silane, bromo-	179.15	275.05
13465-74-2	Bromotrichlorosilane	211.15	353.45
13465-77-5	1,1,1,2,2,2-Hexachlorodisilane	272.15	418.15
13465-78-6	Chlorosilane	155.15	242.75