CAS	name	Tm	Tb
2273-41-8	α,α-Dimethyl-1-piperidineacetonitrile	318.15	
2273-48-5	Didodecyloxostannane	273.26	
2273-51-0	Oxodiphenylstannane	593.15	
2273-93-0	2,6-Dichloro-7-methyl-7H-purine	468.9	
22737-36-6	O-(Trimethylsilyl)hydroxylamine		371.65
22739-29-3	N-Methyl-9-acridinamine	446.65	
2274-01-3	N-(Aminocarbonyl)-2-ethylbutanamide	478.15	
2274-11-5	Ethylene acrylate	461.65	328.15
2274-42-2	(Methylsulfonyl)acetonitrile	357.15	
2274-67-1	Dimethylvinphos	342.65	
2274-69-3	2-Chloro-1-(2,5-dichlorophenyl)ethenyl dimethyl phosphate	376.65	
2274-74-0	Chlorfensulfide	387.65	
2274-80-8	N-Dodecylglycine	390.65	
22749-43-5	6-Chloro-6H-dibenz[c,e][1,2]oxaphosphorin	360.15	
2275-18-5	Prothoate	301.65	
2275-23-2	Vamidothion	320.15	
2275-26-5	2-Oxocyclohexanepropanoic acid	335.15	
22750-93-2	Perchloric acid, ethyl ester		362.15
22752-98-3	1,4′-Bipyridinium, chloride (1:1)	399.15	
22753-80-6	[5-Chloro-2-[(2,2,2-trifluoroethyl)amino]phenyl]phenylmethanone	372.65	
22753-81-7	N-(2-Benzoyl-4-chlorophenyl)-2-bromo-N-(2,2,2-trifluoroethyl)acetamide	389.15	
22753-88-4	N-[4-Bromo-2-(2-pyridinylcarbonyl)phenyl]benzamide	412.15	
22755-15-3	N-1-Pyrenylacetamide	538.65	
22760-18-5	Proquazone	410.65	
2277-23-8	1-Decanoylglycerol	324.55	
2277-28-3	1-Monolinolein	287.65	
2277-92-1	Oxyclozanide	483.15	
22775-12-8	Benzenemethanol, 4-hydroxy-3,5-dimethoxy-α-[(methylamino)methyl]-, hydrochloride (1:1)	445.15	
22775-37-7	3,5-Dichloro-2-methoxybenzoic acid	439.65	
2278-15-1	4,6-Dimethyl-3H-1,2,3-triazolo[4,5-d]pyrimidine-5,7(4H,6H)-dione	525.65	
2278-22-0	Peroxyacetyl nitrate	224.65	377.05
22781-23-3	Bendiocarb	402.65	
22788-18-7	Carboxyphosphamide	392.15	
22788-49-4	2-Methoxy-α-phenylbenzenemethanol	414.15	
2279-18-7	3a,4,5,6,7,7a-Hexahydro-5-(2-propen-1-yloxy)-4,7-methano-1H-indene		370.65
2279-76-7	Tripropyltin chloride	249.65	
22790-12-1	3,6,9,12-Tetraoxatetradecan-1-ol, 13-oxo-, 1-acetate		617.15
22791-80-6	Tetrahydro-4,4-dimethyl-2H-pyran-2-one	302.65	507.65
2280-01-5	N-Acetyl-D-tryptophan	453.65	
2280-27-5	3-Methyl-L-threonine	478.15	
2280-85-5	6-Methyl-DL-tryptophan	532.15	
2280-89-9	3-Amino-2,4,6-triiodo-5-[(methylamino)carbonyl]benzoic acid	540.15	
22802-39-7	2-Bromo-4,5-dimethylphenol	353.15	
22802-40-0	2,6-Dibromo-3,4-dimethylphenol	311.15	
22807-99-4	1,3,5-Trimethoxy-2-(phenylmethyl)benzene	365.15	
22808-06-6	2,2,5,5-Tetramethyl-3-hexene		424.15
22808-29-3	4-tert-Butyl-3,6-dichloropyridazine	311.65	
22808-73-7	Benzoic acid, 4-(aminosulfonyl)-, methyl ester	454.65	
2281-78-9	4-Chloro-N-[[(1-methylethyl)amino]carbonyl]benzenesulfonamide	429.15	
22813-31-6	Methyl 2-(2-nitro-1H-imidazol-1-yl)acetate	369.15	
22818-40-2	D-p-Hydroxyphenylglycine	496.15	
2282-89-5	Alanine, N,N-diethyl-, 2,6-diethylphenyl ester, hydrochloride, L-	411.65	
22821-80-3	N-[4-(Methylsulfonyl)phenyl]acetamide	456.15	
22823-50-3	L-Methionine, N-[(1,1-dimethylethoxy)carbonyl]-, compd. with N-cyclohexylcyclohexanamine (1:1)	394.65	
228266-40-8	N,β,β-Trimethyl-L-phenylalanyl-N-[(1S,2E)-3-carboxy-1-(1-methylethyl)-2-buten-1-yl]-N,3-dimethyl-L-valinamide	409.15	
2283-08-1	2-Hydroxy-1-naphthoic acid	427.65	489.15
2283-11-6	Hexaethylphosphorous triamide	504.15	
22831-39-6	Magnesium silicide (Mg2Si)	1375.15	
22832-87-7	Miconazole nitrate	443.65	
22834-83-9	Ornithine, hydrochloride (1:?)	488.15	
22839-47-0	Aspartame	519.65	
2284-20-0	4-Methoxyphenyl isothiocyanate	291.15	553.65
2284-30-2	4-Benzylresorcinol	349.65	
2284-32-4	Estriol, triacetate	389.65	
2284-36-8	Methyl (3α,5β,7α)-3,7-bis(acetyloxy)chol-11-en-24-oate	413.15	
22840-91-1	cis-Dichlorobis(dimethyl sulfoxide)platinum	493.15	
22846-83-9	2-Butenoic acid, 2-methyl-, 8-methyl-8-azabicyclo[3.2.1]oct-3-yl ester, hydrobromide, [1α,3α(E),5α]-	505.65	
2285-16-7	1,3-Dihydro-5-phenyl-7-(trifluoromethyl)-2H-1,4-benzodiazepin-2-one	478.65	
22855-36-3	Ethanol, 2-phenoxy-, 1,1′-carbonate	365.65	
2286-54-6	β-Phenylbenzenepropanenitrile	361.65	
2286-56-8	Ethyl 3-(1,3-benzodioxol-5-yl)-2-cyano-2-propenoate	379.15	
22862-76-6	(-)-Anisomycin	413.65	
22863-79-2	4-Phenanthrenemethanol	417.65	
22865-48-1	1-Methyl-4-[(4-nitrophenyl)thio]benzene	354.65	
2287-32-3	1-[2-(2-Chloroethoxy)ethoxy]-2-methoxybenzene	304.65	397.15
22871-55-2	1-Ethyl 5-nitro-1,3-benzenedicarboxylate	435.15	
22871-56-3	3-[[(2-Hydroxyethyl)amino]carbonyl]-5-nitrobenzoic acid	459.15	
22874-42-6	4(1H)-Pyrimidinone, 2,3-dihydro-6-methyl-2-thioxo-, sodium salt (1:1)	643.15	
22876-19-3	5-Chloro-2-mercaptobenzoxazole	548.15	
22876-20-6	6-Chloro-2-mercaptobenzoxazole	497.65	
2288-13-3	1-Methyl-2,8,9-trioxa-5-aza-1-silabicyclo[3.3.3]undecane	425.15	
22881-33-0	N-[(4-Chlorophenyl)methyl]-2-pyridinamine	370.4	
22881-35-2	Famprofazone	405.65	
22882-43-5	rel-(1R,2R)-2-Nitrocyclopropanecarboxylic acid	394.4	
22883-85-8	6-Ethoxyquinoline		562.15
22884-10-2	1H-Imidazole-1-acetic acid	541.65	
22884-31-7	1,5-Pentanediylbis(triphenylphosphonium) dibromide, 1,1′-(1,5-pentanediyl)bis[1,1,1-triphenyl-, bromide (1:2)	535.15	
22884-95-3	3,4-Dimethylbenzonitrile	342.4	
22887-42-9	Glycine, N,N-diethyl-, (11β)-11,17-dihydroxy-16-methylene-3,20-dioxopregna-1,4-dien-21-yl ester, hydrochloride	518.65	
22888-60-4	L-Histidine, methyl ester, hydrochloride (1:?)	475.65	
22888-70-6	Silybin	431.15	
22889-78-7	4-Amino-3,5-dichloropyridine	434.15	
22890-11-5	N-[3-(Dimethylamino)propyl]decanamide	296.15	
22892-95-1	4-Chloro-3-(chlorosulfonyl)-5-nitrobenzoic acid	466.65	
22892-96-2	3-(Aminosulfonyl)-4-chloro-5-nitrobenzoic acid	508.9	
229-87-8	Phenanthridine	380.55	622.15
2290-65-5	Isothiocyanatotrimethylsilane	240.15	417.15
22900-79-4	N-(4-Hydroxy-3,5-dimethylphenyl)acetamide	434.15	
22907-72-8	1,4-Bis(1-methylethyl)cyclohexane		483.9
22910-60-7	Ginkgolic acid	365.15	
22914-30-3	N-Cyano-N′-(methoxymethyl)guanidine	395	
22916-47-8	Miconazole	457.65	
22919-28-4	3,5-Cyclohexadiene-1,2-dicarboxylic acid	482.65	
2292-08-2	8-Azabicyclo[3.2.1]octan-3-ol, 8-methyl-, hydrochloride (1:1), (3-endo)-	553.15	
2292-16-2	(-)-Neferine	333.15	
2292-50-4	1-Dodecanamine, N-methyl-, hydrochloride (1:1)	455.65	
2292-79-7	Diamantane	517.15	
22921-68-2	2-Bromo-5-methoxybenzoic acid	434.65	
22923-00-8	N-(2,4-Dichlorophenyl)formamide	431.65	
22924-15-8	3-Ethoxybenzaldehyde	450.15	518.65
22927-78-2	5-(4-Methoxyphenyl)-5-methyl-2,4-imidazolidinedione	482.15	
2293-07-4	(4-Methoxyphenyl)thiourea	481.15	
2293-55-2	2-Chloro-N-(1,1-dimethyl-2-phenylethyl)-N-methylacetamide	386.65	
22930-85-4	1,2-Benzenediol, 4-[2-(ethylamino)-1-hydroxypropyl]-, hydrochloride (1:1)	486.15	
22932-84-9	N-(4-Butyl-3-hydroxyphenyl)acetamide	418.15	
22936-75-0	Dimethametryn	338.15	425.15
22936-86-3	Cyprazine	440.15	
22939-93-1	4-Methoxy-3-nitrobenzenesulfonamide	448.15	
2294-38-4	Ethylpyridinium chloride	373.15	
2294-41-9	2-Chlorobicyclo[2.2.1]hepta-2,5-diene		409.65
2294-47-5	1,4-Diazidobenzene	356.15	
2294-71-5	Methyl α-ethylbenzeneacetate	350.65	501.15
2294-74-8	α-Phenyl-2-pyridineethanol	382.15	
2294-76-0	2-Pentylpyridine		479.9
2294-82-8	9-Ethylfluorene	373.65	396.65
22948-06-7	p-Tritylaniline	523.15	
22948-94-3	1-Acetylindole-3-carboxaldehyde	433.65	
2295-12-7	1,1-Dimethylsilacyclobutane	316.65	355.15
2295-13-8	1,1,3-Trimethylsilacyclobutane		369.15
2295-24-1	Dichlorodipropylsilane		448.65
2295-31-0	Thiazolidinedione	401.15	
2295-35-4	2-Pyrrolidinethione	389.15	
2295-42-3	2-(3-Pyridyl)benzoxazole	386.65	
2295-47-8	2-(4-Pyridinyl)benzoxazole	400.65	
2295-58-1	Flopropione	448.65	
22950-29-4	4-Hydroxy-3,5-dimethoxy-α-[(methylamino)methyl]benzenemethanol	451.15	
22952-87-0	(5α,6β)-6-Azido-4,5-epoxy-17-methylmorphinan-3-ol	465.65	
22955-73-3	1,3-Dimethyl 4-methoxy-1,3-benzenedicarboxylate	369.15	
22961-45-1	N-Phenyl-4-pyridinamine	448.15	
2297-30-5	Androst-5-ene-3,17-diol, dipropanoate, (3β,17β)-	388.65	
2297-64-5	Benzenesulfonic acid, 4-bromo-, hydrazide	391.15	
2297-94-1	2-Hydroxy-5-nitroso-2,4,6-cycloheptatrien-1-one	459.15	
22976-86-9	Polyoxorim	447.15	
22976-90-5	5-[[2-Amino-5-O-(aminocarbonyl)-2-deoxy-L-xylonoyl]amino]-1,5-dideoxy-1-(3,4-dihydro-2,4-dioxo-1(2H)-pyrimidinyl)-β-D-allofuranuronic acid	454.65	
22978-56-9	2,4-Dinitro-N-phenylbenzamide	466.15	
2298-07-9	1-Amino-4-bromonaphthalene	374.65	
2298-36-4	2-(4-Aminophenoxy)acetic acid	405.15	
22980-09-2	α-Oxo-1H-indole-3-acetyl chloride	402.15	
22984-54-9	Methyltris(methyl ethyl ketoxime)silane	251.15	
22986-69-2	17-Tritriacontanone	354.65	
22987-10-6	N-(3-Aminophenyl)propanamide	329.15	
2299-26-5	2,6-Methano-1H-azecino[5,4-b]indole-14-carboxylic acid, 5-ethyl-2,3,4,5,6,7,8,9-octahydro-3-methyl-8-oxo-, methyl ester, (2S,5R,6S,14S)-	454.15	
2299-73-2	4-Methoxybenzaldehyde azine	438.15	
22994-85-0	Benznidazole	462.15	
22996-18-5	4-Chloro-2-nitrobenzenemethanol	345.15	
230-07-9	4,7-Phenanthroline	450.15	
230-17-1	Benzo[c]cinnoline	431.15	
230-27-3	Benzo[h]quinoline	325.15	612.15
230-46-6	1,7-Phenanthroline	351.15	633.15
2300-03-0	(6α)-6-Fluoropregn-4-ene-3,20-dione	424.15	
2300-15-4	Trisphenol	464.65	
23003-22-7	2-Mercapto-3-pyridinol	414.15	
23007-85-4	Pyridine, 1,2,3,6-tetrahydro-1-methyl-4-phenyl-, hydrochloride (1:1)	515.15	
23008-56-2	N-(4-Chlorophenyl)-2-nitrobenzenamine	418.65	
2301-25-9	1-(4-Nitrophenyl)-1H-imidazole	469.65	
2301-80-6	1,4-Dimethylpyridinium iodide	425.15	
23012-11-5	2,5-Dimethyloxazole	391.15	390.65
2302-17-2	Asulam sodium salt	513.15	
2302-25-2	4-Bromoimidazole	403.65	
2302-30-9	4,5-Dibromo-1H-imidazole	498.15	
2302-39-8	4,5-Dimethyl-1H-imidazole	464.65	
2302-84-3	2-Formylhydrazinecarbothioamide	449.65	
2302-88-7	Acetic acid, 2-(aminothioxomethyl)hydrazide	430.15	
2302-93-4	Acetophenone, thiosemicarbazone	381.15	
2302-95-6	2-Ethylidenehydrazinecarbothioamide	408.65	
2303-16-4	Di-allate	300.65	
2303-17-5	Triallate	302.65	
2303-23-3	1-Chloro-3-(4-nitrophenoxy)benzene	334.15	
2303-35-7	D-ribo-Hexitol, 2,5-anhydro-1,4,6-trideoxy-6-(trimethylammonio)-, chloride (1:1)	453.65	
23030-43-5	2-Iodo-1,4-benzenediol	388.65	
23031-25-6	Terbutaline	392.65	
23031-32-5	Terbutaline sulfate	520.15	
23031-78-9	1,2-Benzisothiazol-3-amine	387.15	
23033-97-8	1,3-Diethyl 2-methyl-4,5-dioxo-1,3-cyclopentanedicarboxylate	380.65	
23034-56-2	6-Diazo-N-(9-ethyl-9H-carbazol-3-yl)-5,6-dihydro-5-oxo-1-naphthalenesulfonamide	450.65	
23037-20-9	4-Hydroxy-2,2,6,6-tetramethyl-4-piperidinecarbonitrile	403.65	
23038-36-0	1-Bromo-4-(phenylsulfonyl)benzene	381.4	
2304-17-8	Androsta-1,4-dien-3-one, 2,17-dihydroxy-17-methyl-, (17β)-	452.15	
2304-30-5	Tetrabutylphosphonium chloride	354.65	
2304-58-7	5-Cyanopentanamide	339.65	
2304-83-8	1,2-Chrysenedione	510.65	
2304-85-0	1,8-Pyrenedione	543.15	
2304-94-1	N-(Benzyloxycarbonyl)-β-alanine	379.15	
2304-96-3	N2-[(Phenylmethoxy)carbonyl]-L-asparagine	438.15	
2304-98-5	N5-[Imino(nitroamino)methyl]-N2-[(phenylmethoxy)carbonyl]-L-ornithine	406.15	
23042-75-3	N-(2,4-Dimethoxyphenyl)acetamide	390.15	
23043-41-6	1-Methylacridine	371.65	
23045-52-5	1,4-Butanediaminium, N1,N1,N1,N4,N4,N4-hexamethyl-, iodide (1:2)	554.15	
23047-25-8	Lofepramine	528.15	
23049-93-6	Enfenamic acid	389.65	
2305-05-7	γ-Dodecalactone	290.65	
2305-13-7	Dihydroconiferyl alcohol	338.15	
2305-21-7	2-Hexen-1-ol		428.15
2305-26-2	rel-(1R,2S)-4-Cyclohexene-1,2-dicarboxylic acid	439.15	
2305-32-0	(±)-trans-1,2-Cyclohexanedicarboxylic acid	495.15	
2305-36-4	2-Amino-4-methylbenzoic acid	452.15	
2305-79-5	4,5,6,7-Tetrahydro-1H-indazole	357.15	
23050-90-0	4-(Diethylamino)-2-hydroxybenzoic acid	416.65	
23050-91-1	4-(Dimethylamino)-2-hydroxybenzoic acid	402.15	
23051-44-7	2-(3,5,5-Trimethyl-2-cyclohexen-1-ylidene)propanedinitrile	352.65	
23054-59-3	N-(2-Hydroxypropyl)hexanamide	304.65	
23054-60-6	N-(2-Hydroxypropyl)octanamide	320.65	
23054-61-7	N-(2-Hydroxypropyl)decanamide	331.65	
23055-47-2	2-Iodo-7-nitro-9H-fluorene	517.65	
23056-33-9	2-Chloro-4-methyl-5-nitropyridine	312.15	
23056-39-5	2-Chloro-4-methyl-3-nitropyridine	325.6	
2306-88-9	Octyl caprylate	255.05	579.95
2306-89-0	Decyl octanoate	277.35	403.15
2306-92-5	Octyl decanoate	272.45	403.15
23067-13-2	Erythromycin gluceptate	390.65	
23068-34-0	Benzenamine, 2,3-dichloro-, hydrochloride (1:1)	476.15	
2307-49-5	Tricamba	411.15	
2307-66-6	3-(4-Chloro-2-methylphenoxy)propanoic acid	377.15	
2307-68-8	Pentanochlor	358.15	
2307-69-9	Isopropyl tosylate	293.15	
23074-36-4	2-Bromo-1-butene	139.75	361.15
23074-42-2	1-Cyanoadamantane	458.65	
23077-32-9	2-Hydroxy-9H-carbazole-1-carboxylic acid	544.65	
23079-28-9	Tris(3-methylbutyl)phosphine oxide	335.65	600.65
2308-38-5	tert-Butyl butyrate		409.4
2308-61-4	3,6-Dibenzyl-2,5-dioxopiperazine	563.15	
23082-50-0	2′-Chloro-5′-nitroacetophenone	335.15	
2309-07-1	Methyl ferulate	338.15	
2309-48-0	1,3-Di-2-thienyl-2-propen-1-one	327.65	
2309-49-1	Theacrine	499.15	
2309-94-6	Disperse Blue 183	456.15	
23092-17-3	Halazepam	438.15	
23095-31-0	3,4-Dimethoxybenzenesulfonyl chloride	337.65	
2310-17-0	Phosalone	320.9	
2310-98-7	Propane, 2-bromo-2-chloro-		368.15
23103-98-2	Pirimicarb	363.65	
23107-12-2	(1R)-2,3-Dihydro-1-hydroxy-1H-pyrrolizine-7-methanol	357.65	
23107-96-2	2-Benzoylbenzeneacetic acid	412.15	
2311-46-8	Isopropyl hexanoate		441.15
2311-91-3	Monoperoxyphthalic acid	384.15	
23110-15-8	Fumagillin	467.65	
23117-71-7	2-(Bromomethyl)-9H-thioxanthen-9-one	467.65	
23118-56-1	3,5-Diethyl 4-(2-furanyl)-1,4-dihydro-2,6-dimethyl-3,5-pyridinedicarboxylate	437.65	
23118-58-3	3,5-Diethyl 1,4-dihydro-2,6-dimethyl-4-(2-thienyl)-3,5-pyridinedicarboxylate	430.65	
2312-15-4	4-(Dodecyloxy)benzoic acid	368.15	
2312-23-4	Hydrazine, (3-chlorophenyl)-, hydrochloride (1:1)	507.65	
2312-73-4	N-(Phenylmethyl)-9-(tetrahydro-2H-pyran-2-yl)-9H-purin-6-amine	382.15	
23125-28-2	3′,5′-Diethyl 1′,4′-dihydro-2′,6′-dimethyl[2,4′-bipyridine]-3′,5′-dicarboxylate	468.15	
23128-74-7	Antioxidant 1098	431.65	
231291-22-8	6-Trifluoromethylnicotinic acid	461.65	
23132-52-7	1-(1,1-Dimethylethyl)-3-nitrobenzene	275.15	527.15
23135-18-4	N,N-Dimethyl-2-butenamide		473.15
23135-22-0	Oxamyl	374.15	
2314-09-2	Flurenol-butyl	344.15	
2314-48-9	Dimethyl trithiocarbonate	492.65	
2314-61-6	4-Phenyl-1,3-dithiole-2-thione	390.15	
2314-78-5	N-Ethylsuccinimide	299.15	509.15
2314-80-9	1-(4-Methoxyphenyl)-2,5-pyrrolidinedione	436.15	
2314-97-8	Trifluoroiodomethane		250.65
23141-25-5	Strictosamide	449.65	
23141-61-9	6-Methyl-5-nitroquinoline	389.65	
23142-01-0	Carbetapentane citrate	366.15	
23142-53-2	3-Heptanone, 6-(dimethylamino)-4,4-diphenyl-, hydrobromide	497.15	
23146-04-5	3,7-Dihydro-7-(3-hydroxypropyl)-1,3-dimethyl-1H-purine-2,6-dione	424.65	
23146-05-6	7-(2-Bromoethyl)-3,7-dihydro-1,3-dimethyl-1H-purine-2,6-dione	417.4	
2315-02-8	Oxymetazoline hydrochloride	574.65	
2315-08-4	Salazosulfadimidine	480.15	
2315-20-0	Hydrazinecarboximidamide, 2-[3-(5-nitro-2-furanyl)-1-[2-(5-nitro-2-furanyl)ethenyl]-2-propen-1-ylidene]-, hydrochloride (1:1)	553.15	
2315-36-8	Chloro-N,N-diethylacetamide	331.15	422.15
2315-40-4	Pyridinium, 1-hexadecyl-4-methyl-, bromide (1:1)	349.15	
2315-43-7	N,N,3-Trimethyl-1-butanamine	408.15	386.15
2315-68-6	Propyl benzoate	221.55	484.15
2315-86-8	3-Bromo-4-hydroxybenzonitrile	426.65	
23150-35-8	(1R,2R)-2-Amino-1-[4-(methylthio)phenyl]-1,3-propanediol	424.65	
23150-65-4	L-Glutamic acid, 1,5-dimethyl ester, hydrochloride (1:1)	422.15	
23152-45-6	2-[3,5-Bis(trifluoromethyl)phenyl]-N-methylhydrazinecarboxamide	486.15	
23153-23-3	1,1,1,3,3-Pentachloropropane		451.9
23155-02-4	Fosfomycin	367.15	
23159-07-1	1-Pyrrolidinepropanamine	489.15	
2316-26-9	3′,4′-Dimethoxycinnamic acid	455.15	
2316-64-5	5-Bromo-2-hydroxybenzyl alcohol	386.15	
23165-46-0	1,2,4-Trichloro-5-isothiocyanatobenzene	321.15	553.15
23165-60-8	Benzene, 1-isothiocyanato-4-methoxy-2-nitro-	363.15	
2317-91-1	Ethene, 1-chloro-1-fluoro-		272.15
23172-92-1	(16S)-11-Methoxysarpagan-17-ol	516.65	
2318-18-5	Senkirkine	471.15	
2318-25-4	Ethyl 3-ethoxy-3-iminopropanoate hydrochloride	385.15	
23184-97-6	1-Propanone, 2-amino-1-(4-chlorophenyl)-, hydrochloride (1:1)	532.15	
2319-29-1	Decanamide	381.15	
2319-61-1	1,1′-Ethylidenebis[cyclohexane]	252.28	529.65
2319-96-2	5-Methylbenz[a]anthracene	426.65	
23191-75-5	3,5-Diethyl 1,4-dihydro-2,6-dimethyl-4-[2-(trifluoromethyl)phenyl]-3,5-pyridinedicarboxylate	414.4	
23192-42-9	Hexalure		375.15
23194-13-0	N-(2-Hydroxyethyl)-N′-[6-[[[(2-hydroxyethyl)amino]carbonyl]amino]hexyl]urea	466.75	
232-95-1	Naphtho[2,1-b]furan	338.15	
2321-07-5	Fluorescein	588.15	
2321-65-5	Benzothiazolium, 2-[2-[2,3-dihydro-5-methyl-3-oxo-2-phenyl-1-(4-sulfobutyl)-1H-pyrazol-4-yl]-3-(6-methoxy-3-methyl-2(3H)-benzothiazolylidene)-1-propen-1-yl]-6-methoxy-3-methyl-, inner salt	621.15	
2321-76-8	1-Cyano-2-iminocyclopentane	420.15	
23210-56-2	Ifenprodil	387.15	
23210-58-4	Ifenprodil tartrate	452.15	
23214-92-8	Doxorubicin	477.15	
2322-38-5	2,3,5,6-Tetrachloro-4-pyridinol	503.65	
2322-77-2	13-Ethyl-3-methoxygona-2,5(10)-dien-17-one	396.15	
23220-52-2	meso-2,3-Diaminosuccinic acid	577.15	
23222-97-1	2-Nitro-1,4-benzenedimethanol	365.15	
23228-74-2	4-Thiobiuret	461.15	
23229-29-0	2-(4′-Methylphenyl)-1,3-dithiolane	329.15	
23229-30-3	2-(3-Nitrophenyl)-1,3-dithiolane	339.65	
23229-32-5	2-(4-Chlorophenyl)-1,3-dithiolane	335.15	
23235-61-2	Ditrimethylolpropane	382.65	488.15
23236-18-2	3-Carboxymethyl-5-[(3-ethyl-2(3)-benzoxazolidine)ethylidene]rhodanine	580.15	
23239-37-4	Piperidine, 2-[(2S,4S)-2-ethyl-2-phenyl-1,3-dioxolan-4-yl]-, hydrochloride (1:1), (2S)-	494.9	
23239-51-2	Ritodrine hydrochloride	467.15	
23239-88-5	Benzocaine hydrochloride	564.65	
2324-41-6	1-Methyl-2-(1-methylethylidene)hydrazinecarbothioamide	407.15	
2324-98-3	2,3,5,6-Tetrafluoroanisole		411.15
23243-68-7	2,2′-[1,2-Ethanediylbis(oxy)]bis[acetic acid]	342.65	
23244-88-4	1H-Indazol-6-ol	488.15	
23245-64-9	5-Nitro-1-naphthalenecarbonitrile	470.15	
23246-96-0	Riddelline	469.15	
23249-97-0	1H-Benzimidazole-2-propanoic acid	501.15	
2325-17-9	Glycyl-DL-valine	446.65	
2325-27-1	N-(Triphenylphosphoranylidene)benzenamine	404.65	
23250-03-5	Hydroxyethyltriphenylphosphonium chloride	506.15	
23251-72-1	Diethanolamine acetate	328.15	
23252-62-2	1,2-Ethanediaminium, N1,N1,N1,N2,N2,N2-hexamethyl-, chloride (1:2)	525.65	
23255-41-6	S-[2-(Acetylamino)ethyl] 3-oxobutanethioate	313.65	
23255-54-1	Dihydro-β-erythroidine	358.65	
23255-69-8	Fusarenon X	364.65	
23255-93-8	9H-Thioxanthen-9-one, 1-[[2-(diethylamino)ethyl]amino]-4-(hydroxymethyl)-, methanesulfonate (1:1)	416.15	
23256-23-7	Sulfatroxazole	467.4	
23256-30-6	(±)-Nifurtimox	454.15	
23256-40-8	Hydrazinecarboximidamide, 2-[(2,6-dichlorophenyl)methylene]-N-hydroxy-, hydrochloride (1:1)	447.15	
23256-50-0	Guanabenz acetate	501.15	
23257-56-9	2-Piperidinemethanol, α-phenyl-, 2-acetate, hydrochloride (1:1), (αR,2R)-	502.65	
2326-26-3	(6α,11β)-21-(Acetyloxy)-6,9-difluoro-11-hydroxypregna-1,4,16-triene-3,20-dione	482.65	
2326-89-8	Drimenin	406.15	
23261-20-3	Dianhydrogalactitol	370.65	
23268-00-0	Hydrazine, hydrobromide (1:2)	472.15	
2327-02-8	N-(3,4-Dichlorophenyl)urea	429.1	
2327-67-5	4-Methyl-N-(triphenylphosphoranylidene)benzenamine	407.65	
23273-02-1	[μ-(Dimethylamino)]diborane(6)	219.15	324.15
23277-00-1	Phosphonium, (1-naphthalenylmethyl)triphenyl-, chloride (1:1)	563.9	
23277-50-1	D-Glucitol, 1-deoxy-1-(methylamino)-, 2-hydroxybenzoate (1:1)	373.15	
2328-12-3	6,7-Dimethoxy-1,2,3,4-tetrahydroisoquinoline hydrochloride	536.15	
2328-31-6	Benzenemethanol, 2,3-dichloro-, 1-(N-methylcarbamate)	376.65	
23282-20-4	Nivalenol	495.65	
23282-34-0	Potassium nonanoate	554.15	
23283-94-5	7-[(3,7-Dimethyl-5-oxo-3,7-octadien-1-yl)oxy]-2H-1-benzopyran-2-one	359.65	
23283-97-8	(+)-Isomenthol	352.65	
23284-18-6	Peltatoside	483.15	
23287-26-5	Benzoic acid, 2-hydroxy-3-methyl-, methyl ester	302.15	508.15
23288-49-5	Probucol	398.15	
23291-96-5	(3R,4R,5R,13aR)-4,5,8,12,13,13a-Hexahydro-4,5-dihydroxy-3,4,5-trimethyl-2H-[1,6]dioxacycloundecino[2,3,4-gh]pyrrolizine-2,6(3H)-dione	373.15	
233-02-3	Naphtho[2,1-b]thiophene	381.65	
23305-64-8	Triethylene glycol monopropyl ether		411.15
23305-71-7	Diazene, 1,1′-(3,3′-dimethoxy[1,1′-biphenyl]-4,4′-diyl)bis[2-[phenyl(phenylhydrazono)methyl]-	478.15	
23306-60-7	4-(Ethylsulfonyl)-2-nitrobenzenamine	415.65	
23306-69-6	2-Butenoic acid, ammonium salt (1:1)	383.15	