CAS	name	Tm	Tb
19788-36-4	3,5-Dimethyl-4-isoxazolemethanol	346.65	
197904-84-0	Apricoxib	435.15	
19793-20-5	Bolandiol	443.65	
19798-80-2	4-Chloro-2-pyridinamine	403.65	
19800-47-6	[1,1′-Biphenyl]-3,3′-dicarboxaldehyde	366.15	
19800-49-8	2,7-Naphthalenedicarboxaldehyde	415.15	
19801-06-0	6-Amino-3,4-dihydro-3-methyl-2(1H)-quinoxalinone	528.15	
198063-88-6	2-Chloro-4-(4-chlorophenyl)-5-oxazolepropanoic acid	440.65	
19809-79-1	Uliginosin B	413.9	
1981-39-1	4-Piperidinecarboxamide, N-ethyl-, hydrochloride (1:1)	425.65	
1981-50-6	Margaroleic acid	286.4	
19815-04-4	1-(Acetyloxy)-7,8,9,10-tetrahydro-3-methyl-6H-dibenzo[b,d]pyran-6-one	397.15	
19815-14-6	7-Nitro-4-quinazolinamine	577.15	
19815-18-0	4-Chloro-8-nitroquinazoline	470.4	
19817-09-5	4,4′-Dimethoxy-1,1′-binaphthalene	525.65	
198220-52-9	4-[(2,4-Dimethylphenyl)amino]-4-oxo-2-butenoic acid	423.4	
1983-81-9	4,7-Dihydroxycoumarin	537.15	
19833-12-6	Myricetin 3-O-glucoside	549.15	
19834-77-6	4-Quinolinecarboxylic acid, 6-methoxy-, methyl ester	357.15	
19835-40-6	2-(1-Methyl-2-tricyclo[3.3.1.13,7]dec-1-ylethylidene)hydrazinecarboxamide	488.65	
19837-78-6	N-(4-Acetylphenyl)-4-aminobenzenesulfonamide	481.15	
19837-79-7	4-Amino-N-(3-methoxyphenyl)benzenesulfonamide	423.15	
19837-90-2	N-[4-[[(4-Ethoxyphenyl)amino]sulfonyl]phenyl]acetamide	479.15	
19837-96-8	N-[4-[[(3-Methoxyphenyl)amino]sulfonyl]phenyl]acetamide	450.65	
19838-01-8	N-[4-[[(2-Methoxyphenyl)amino]sulfonyl]phenyl]acetamide	477.15	
19839-66-8	5H-Benzocyclohepten-5-ol, 6,7,8,9-tetrahydro-6-(4-methyl-1-piperazinyl)-, hydrochloride (1:1)	530.65	
1984-51-6	3,5,6,7-Tetrahydro-4′,4′,6,6-tetramethylspiro[benzofuran-2(4H),1′-cyclohexane]-2′,4,6′-trione	484.65	
1984-94-7	Sulfasymazine	460.15	
19854-93-4	(4-Methoxyphenyl)-1H-pyrazol-3-ylmethanone	370.4	
198561-87-4	9H-Fluoren-9-ylmethyl N-[(1R)-2-(1,1-dimethylethoxy)-1-(hydroxymethyl)ethyl]carbamate	369.15	
19861-63-3	5-Amino-2,4-dichlorobenzoic acid	469.65	
19861-71-3	N-(1-Cyanoethyl)acetamide	374.15	
19865-86-2	Ocotillone	443.65	
19865-87-3	Cabralealactone	456.15	
19869-42-2	4H-Azepin-4-one, hexahydro-1-methyl-, hydrochloride (1:1)	439.9	
1987-58-2	4-Methyl-N-[[(phenylmethyl)amino]carbonyl]benzenesulfonamide	450.65	
1987-71-9	Niacinamide ascorbate	416.15	
198754-70-0	1-Hydroxy-N,N-dimethyl-1H-1,2,3-triazole-5-carboxamide	400.65	
198762-70-8	Benzoic acid, 4-methyl-, tetrahydro-2,5-dioxo-3,4-furandiyl ester	470.65	
19879-44-8	2H,16H-6,9-Etheno-1,24:11,15-dimethenopyrido[2′,3′:17,18][1,11]dioxacycloheneicosino[2,3,4-ij]isoquinoline, 3,4,4a,5,16a,17,18,19-octahydro-12,21,22,25-tetramethoxy-4,17-dimethyl-, [4aS-(4aR*,16aS*)]-	481.65	
19883-77-3	3-Fluoro-L-phenylalanine	515.65	
19883-78-4	2-Fluoro-L-phenylalanine	482.15	
198835-04-0	1,1-Dimethylethyl 6-oxo-2-azabicyclo[2.2.1]heptane-2-carboxylate	357.15	
198835-06-2	1,1-Dimethylethyl 5-oxo-2-azabicyclo[2.2.1]heptane-2-carboxylate	369.15	
19885-22-4	Siderol	425.65	
1989-42-0	1,3-Dimethoxy-9,10-anthracenedione	428.15	
198904-86-8	1,1-Dimethylethyl 2-[(2S,3S)-3-[[(1,1-dimethylethoxy)carbonyl]amino]-2-hydroxy-4-phenylbutyl]-2-[[4-(2-pyridinyl)phenyl]methyl]hydrazinecarboxylate	458.65	
19891-75-9	Lycophyll	462.15	
19897-02-0	(12α)-12-Hydroxypregn-4-ene-3,20-dione	474.65	
198989-08-1	3,4-Dihydro-4-[2-[(phenylmethyl)amino]acetyl]-2(1H)-quinoxalinone	609.15	
19899-83-3	4,6-Dihydrazinyl-1,3,5-triazin-2(1H)-one	623.15	
1990-01-8	Glaucarubolone	529.65	
19903-73-2	epi-Cedrol	310.15	
19906-72-0	(+)-Bakkenolide A	353.7	
19908-69-1	(3aR,4aS,7aS,8S,9aR)-Decahydro-4a,8-dimethyl-3-methyleneazuleno[6,5-b]furan-2,5-dione	418.65	
1991-88-4	4-(Methylthio)phenylalanine	519.15	
19912-61-9	Furanodiene	347.65	
19912-67-5	Epicubenol	302.15	
19913-01-0	(2S,4S,5R,5aS)-4-(1,3-Benzodioxol-5-yl)-2,3,4,5-tetrahydro-7-methoxy-5-methyl-8H-2,5a-methano-1-benzoxepin-8-one	470.15	
19916-89-3	Pyridinium, 2-ethenyl-1-methyl-, iodide (1:1)	496.65	
199186-69-1	(+)-6-Fluoro-1,2,3,4-tetrahydro-2-methylquinoline	313.65	
1992-15-0	α1,α1,α4,α4-Tetrakis(trifluoromethyl)-1,4-benzenedimethanol	358.15	
1992-25-2	1-Amino-α,α-bis(trifluoromethyl)-2-naphthalenemethanol	438.15	
19932-97-9	3-(4-Nitrophenyl)-1,2,4-oxadiazol-5(2H)-one	582.15	
199340-94-8	N-(5-Methyl-4-nitro-1H-pyrazol-3-yl)acetamide	453.15	
1994-13-4	6-Fluoro-4-hydroxycoumarin	518.65	
1994-26-9	2-(Fluoromethyl)-4(3H)-quinazolinone	483.65	
19940-78-4	(4aR,5S,8aR)-Octahydro-1,1,4a-trimethyl-6-methylene-5-[2-[(1S,4aR,8aR)-1,4,4a,5,6,7,8,8a-octahydro-2,5,5,8a-tetramethyl-6-oxo-1-naphthalenyl]ethyl]-2(1H)-naphthalenone	400.65	
19943-27-2	Cyclo(L-prolyl-L-prolyl)	513.15	
19947-43-4	2-(Acetyloxy)butanoic acid	316.15	
19950-55-1	Veraguensin	401.75	
19953-59-4	N-(5-Phenyl-2-pyrazinyl)acetamide	438.15	
19956-53-7	Lucidone	440.65	
19956-54-8	4-Methoxy-2-[(2E)-1-methoxy-3-phenyl-2-propen-1-ylidene]-4-cyclopentene-1,3-dione	388.65	
1996-45-8	3-Amino-6-(trifluoromethyl)-2-pyrazinecarboxylic acid	458.65	
19962-07-3	Carbamic acid, (3-hydroxyphenyl)-, pentyl ester	366.15	
19968-17-3	4-Bromo-3-(trifluoromethyl)-1H-pyrazole	381.15	
19968-60-6	2-Methyl-5-phenylthiazole	353.15	
19968-61-7	4-Methyl-5-phenylthiazole	407.65	
19968-86-6	Cyclohexanol, 1-(aminomethyl)-, compd. with 2,4,6-trinitrophenol (1:1)	443.4	
199734-58-2	rel-N-[(4R,6R)-2-(Aminosulfonyl)-5,6-dihydro-6-methyl-7,7-dioxido-4H-thieno[2,3-b]thiopyran-4-yl]acetamide	524.65	
19977-30-1	8-Bromo-7-[2-(4-bromophenyl)-2-oxoethyl]-3,7-dihydro-1,3-dimethyl-1H-purine-2,6-dione	514.65	
19982-07-1	1-Acetamido-3,5-dimethyladamantane	354.15	
19983-29-0	2-(1-Pyrrolidinyl)benzothiazole	375.15	
19983-44-9	Stattic	460.65	
19983-45-0	6,7-Dihydro-5-(hydroxymethylene)benzo[b]thiophen-4(5H)-one	316.65	
199851-23-5	4-Chloro-2-(phenylthio)-5-thiazolecarboxaldehyde	351.15	
19992-50-8	4-[(1,4-Dihydro-1,4-dioxo-2-naphthalenyl)amino]benzenesulfonamide	566.65	
20000-53-7	Methyl 4-(benzoxazol-2-yl)benzoate	471.15	
20000-57-1	2-(3-Fluorophenyl)-1-phenyl-1H-benzimidazole	370.65	
2001-49-2	rel-(4aR,8aS)-1,2,3,4,4a,5,6,8a-Octahydronaphthalene	249.15	458.15
20012-10-6	1H-3-Benzazepine-7,8-diol, 2,3,4,5-tetrahydro-1-phenyl-, hydrobromide (1:1)	557.15	