CAS	name	Tm	Tb
13726-76-6	N-tert-Butoxycarbonyl-L-arginine	395.65	
13726-85-7	BOC-L-glutamine	322.05	
13730-09-1	2,5-Dimethylbenzonitrile	274.65	
13730-98-8	Sodium p-chlorophenoxyacetate	437.15	
13731-82-3	2,5-Dibromo-1,4-benzenedicarboxylic acid	586.15	
13732-32-6	2,3-Butanedione, 2-(2-phenylhydrazone)	408.15	
13732-62-2	Morpholine, 4-methylbenzenesulfonate (1:1)	398.15	
13733-33-0	N,N′-1,3-Phenylenebis[3-oxobutanamide]	393.65	
13734-28-6	α-tert-Butoxycarbonyl-L-lysine	468.65	
13734-34-4	BOC-L-Phenylalanine	352.65	
13734-41-3	Boc-L-valine	351.15	
13735-81-4	α-(Trimethylsiloxy)styrene	395.65	
13737-36-5	4-(Bromomethyl)phenylacetic acid	453.15	
13738-63-1	Fluoronitrofen	456.65	
13739-02-1	Diacerein	490.65	
13739-35-0	3-[(4-Methylphenyl)thio]propanoic acid	343.15	
13741-18-9	Xibornol	368.15	460.15
13741-61-2	4,4-Dimethyl-2-propyl-1,3-dioxolane	371.65	
13744-68-8	4-Amino-N-1H-indazol-6-ylbenzenesulfonamide	468.65	
13745-20-5	2′,4,4′-Trihydroxychalcone	460.65	
13746-54-8	2-Methoxy-4-(5,5,6-trimethylbicyclo[2.2.1]hept-2-yl)phenol	327.15	
13746-57-1	rel-2-Methoxy-5-[(1R,2S,4R,6S)-5,5,6-trimethylbicyclo[2.2.1]hept-2-yl]phenol		436.65
13746-60-6	rel-2-Methoxy-6-[(1R,2S,4S)-1,7,7-trimethylbicyclo[2.2.1]hept-2-yl]phenol	375.65	
13746-62-8	2-Methoxy-6-(5,5,6-trimethylbicyclo[2.2.1]hept-2-yl)phenol	346.9	
13747-30-3	Calcium caprate	483.15	
13748-90-8	L-Leucic acid	349.15	
13749-59-2	N1,N1,N2,N2-Tetraethylethanedithioamide	362.15	
13749-94-5	Methomyl oxime	367.65	
13752-33-5	Panidazole	382.65	
13752-51-7	OTOS	412.15	
13753-71-4	2-(Dodecylthio)acetic acid	327.15	
13754-19-3	4,5-Diaminopyrimidine	478.65	
13754-56-8	Dioxopromethazine	401.15	
13756-48-4	Carbamic acid, N-(cyanomethyl)-, ethyl ester	418.15	
137566-04-2	3-Ethyl 1-(4-carboxyphenyl)-4,5-dihydro-5-oxo-1H-pyrazole-3-carboxylate	425.15	
13759-10-9	Silicon sulfide (SiS2)		1363.15
13759-56-3	2-Phenyl-3H-naphtho[2,1-b]pyran-3-one	454.65	
13760-78-6	Holmium fluoride	1418.15	
13760-80-0	Ytterbium fluoride	1480.15	
13760-81-1	Lutetium fluoride	1457.15	
13760-83-3	Erbium fluoride	1419.15	
13762-51-1	Potassium borohydride	773.15	
13762-75-9	Lithium metaphosphate	929.15	
13764-49-3	6,14-Ethenomorphinan-7-methanol, 4,5-epoxy-3-hydroxy-6-methoxy-α,17-dimethyl-α-propyl-, hydrochloride (1:1), (αR,5α,7α)-	539.65	
13765-03-2	Lithium iodate	703.15	
13765-24-7	Samarium fluoride	1670.15	
13765-26-9	Gadolinium fluoride	1504.15	
13766-47-7	Tungsten fluoride (WF4), (T-4)-	275.65	292.65
13768-86-0	Selenium trioxide	391.15	
13769-20-5	Europium chloride (EuCl2)	1011.15	2463.15
13769-76-1	Phosphoric dichloride fluoride		325.15
13770-18-8	Cupric perchlorate	508.15	
13770-56-4	Hypodiarsenous tetraiodide	408.65	
13774-81-7	Ammonia borane	385.65	
13774-92-0	Imidogen	366.15	
13775-52-5	Aluminate(3-), hexafluoro-, potassium (1:3), (OC-6-11)-	821.15	
13775-53-6	Trisodium hexafluoroaluminate	1281.15	
13775-80-9	Hydrazine, hydrobromide (1:1)	357.15	
13777-23-6	Hafnium iodide (HfI4)		673.15
13778-37-5	Stishovite (SiO2)	3123.15	
13780-06-8	Calcium nitrite	663.15	
13780-57-9	Sulfur chloride fluoride (SClF5), (OC-6-22)-	209.15	252.15
13780-71-7	Boronic acid	485.65	
13780-91-1	N-[4-Hydroxy-3-(1-methylethyl)phenyl]acetamide	392.65	
13781-53-8	3-Thiopheneacetonitrile		397.65
137862-53-4	Valsartan	389.65	
13790-14-2	1,3-Dichloro-4-methyl-2-nitrobenzene	357.9	
13794-14-4	2-Phenoxybutanoic acid	371.15	531.15
13794-73-5	Cedran-9-one	306.4	
13795-24-9	Benzyl 4-nitrophenyl carbonate	351.65	
13797-63-2	2-(Trifluoromethyl)-3H-imidazo[4,5-b]pyridine	548.65	
13799-03-6	Protizinic acid	397.65	
13799-90-1	2,5-Dichloro-1,4-benzenedicarboxylic acid	579.15	
138-07-8	2-[1-(Aminocarbonyl)hydrazinyl]acetic acid	447.65	
138-14-7	Deferoxamine mesylate	421.65	
138-15-8	L-Glutamic acid, hydrochloride	487.15	
138-22-7	Butyl lactate	245.15	459.15
138-24-9	Phenyltrimethylammonium chloride	493.65	
138-31-8	Acetamide, N-[4-(dihydroxyoxidostibino)phenyl]-, sodium salt (1:1)	573.15	
138-32-9	Cetyltrimethylammonium tosylate	499.15	
138-37-4	Benzenesulfonamide, 4-(aminomethyl)-, hydrochloride (1:1)	529.15	
138-38-5	4-Ethylbenzenesulfonamide	382.65	
138-39-6	Mafenide	424.65	
138-41-0	4-Carboxybenzenesulfonamide	563.65	
138-52-3	Salicin	480.15	
138-53-4	Prulaurasin	488.15	
138-56-7	Trimethobenzamide	461.85	
138-59-0	Shikimic acid	456.9	459.15
138-60-3	Chelidamic acid	521.15	
138-61-4	1,2-Benzenediol, 4-(2-amino-1-hydroxypropyl)-, hydrochloride (1:1)	449.15	
138-65-8	(±)-Norepinephrine	490.4	
138-86-3	Limonene	177.65	
138-87-4	β-Terpineol	305.65	483.15
138-89-6	N,N-Dimethyl-4-nitrosoaniline	366.15	
138-91-0	4-(1-Methylethenyl)-1-cyclohexene-1-carboxaldehyde oxime	375.15	
138-92-1	1H-Pyrazole-3-ethanamine, hydrochloride (1:2)	496.65	
138-93-2	Carbamodithioic acid, N-cyano-, sodium salt (1:2)		382.15
13801-00-8	2,3-Dimethyl-6-nitro-1H-indole	414.65	
13803-65-1	Anhydrotetracycline hydrochloride	487.15	
13808-64-5	4-Bromo-3-methyl-1H-pyrazole	349.65	
13811-50-2	N,N′-Divinylethyleneurea	341.15	
138112-76-2	Agomelatine	382.65	
13812-43-6	Nitrogen fluoride (N2F2), (Z)-	86.15	162.15
13813-19-9	Sulfuric acid-d2	234.15	596.75
13813-23-5	Praseodymium iodide (PrI3)	1006.15	
13813-24-6	Neodymium iodide (NdI3)	1048.15	
13813-25-7	Samarium iodide (SmI3)	1093.15	
13813-41-7	Holmium iodide (HoI3)	1283.15	
13813-42-8	Erbium iodide (ErI3)	1293.15	
13813-43-9	Thulium iodide (TmI3)	1288.15	
13813-62-2	Tetraphosphoric acid	307.15	
13814-75-0	Molybdenum chloride oxide (MoCl4O)	370.15	470.15
13816-38-1	Iodothioxostibine	665.15	
13818-75-2	Gadolinium bromide (GdBr3)	1048.65	1728.15
13818-89-8	Digermane	164.15	304.15
13819-84-6	Molybdenum fluoride (MoF5)	318.15	
13820-09-2	Trimethyl orthovalerate		441.65
13821-20-0	Aluminate(3-), hexafluoro-, lithium (1:3), (OC-6-11)-	1058.15	
13823-29-5	Thorium nitrate	374.15	
13824-04-9	1,3,2,4-Diazadiphosphetidine-2,4-diamine, N,N′,1,3-tetraphenyl-, 2,4-dioxide	623.15	
13824-23-2	4,4′-Methylenebis[2-fluorobenzenamine]	343.15	
13824-36-7	Difluorosilane	154.05	195.65
13825-76-8	Holmium bromide (HoBr3)	1187.15	
13826-83-0	Ammonium tetrafluoroborate	503.15	
138261-41-3	Imidacloprid	417.15	
13827-02-6	Potassium zinc fluoride (KZnF3)	1163.15	
13827-32-2	Sulfinyl	452.65	168.15
13830-58-5	N-Methyl-N′-nitrosoguanidine	368.15	
13831-30-6	Acetoxyacetic acid	340.65	414.65
13831-31-7	2-(Acetyloxy)acetyl chloride	432.65	
13835-41-1	6,10-Dimethyl-3,9-undecadien-2-one		383.15
13836-37-8	N2-[(1,1-Dimethylethoxy)carbonyl]-N5-[imino[[(4-methylphenyl)sulfonyl]amino]methyl]-L-ornithine	372.65	
13838-08-9	Azidamfenicol	380.15	
13838-16-9	Enflurane		329.65
138401-24-8	2-Butyl-3-[[2′-(cyano)biphenyl-4-yl]methyl]-1,3-diazaspiro[4.4]non-1-en-4-one	368.15	
138402-11-6	Irbesartan	453.65	
13846-22-5	1,1,2,2,3,3-Hexafluoro-1,3-bis[(1,2,2-trifluoroethenyl)oxy]propane		364.65
13847-65-9	Nitrogen fluoride oxide (NF3O), (T-4)-	113.15	188.15
13847-66-0	Thallium azide (Tl(N3))	607.15	
13849-08-6	(+)-Marmesin	462.65	
13850-16-3	Tormentic acid	546.15	
13852-51-2	5-Chloro-2-methyl-4-nitrobenzenamine	437.15	
13852-81-8	4-Chloro-2-nitrobenzenesulfonamide	439.65	
138564-59-7	5-Methyl-2-[(2-nitrophenyl)amino]-3-thiophenecarbonitrile	371.65	
13859-65-9	Tetrakis(trifluorophosphine)nickel	218.15	343.65
13860-69-0	N-Methyl-N-nitrosoimidodicarbonic diamide	418.15	
13861-37-5	1-(3-Ethyl-2(3H)-benzothiazolylidene)-2-propanone	389.65	
13861-97-7	β,β-Dimethyl-γ-butyrolactone	329.15	480.65
13862-07-2	Diphemethoxidine	379.65	
13863-41-7	Bromine chloride (BrCl)	431.15	
13865-57-1	4-(Diphenylmethyl)-N,N-dimethylbenzenamine	405.65	
13870-29-6	Sodium pyrosulfate	669.15	
13870-30-9	Sodium silicate (Na2Si3O7)	1023.15	
13871-68-6	Phenol, 4-amino-, 1-acetate	348.15	
138716-37-7	5-(4-Fluorophenyl)isoxazole	325.15	
13874-75-4	Samarium dichloride	1131.15	
13877-76-4	Formycin B	527.65	
13877-91-3	β-Ocimene		346.15
138776-88-2	6,6′-[[3,3′,5,5′-Tetrakis(1,1-dimethylethyl)[1,1′-biphenyl]-2,2′-diyl]bis(oxy)]bis[dibenzo[d,f][1,3,2]dioxaphosphepin]	424.15	
13878-54-1	Bis(piperidinocarbodithioato)zinc	477.15	
13879-32-8	1,1′-[Methylenebis(oxy-2,1-ethanediyloxy)]bis[benzene]	291.15	
13880-05-2	N-[Tris(hydroxymethyl)methyl]acrylamide	405.15	
13881-91-9	Aminomethanesulfonic acid	455.65	
138825-96-4	Methyl 2-(acetylamino)-5-bromobenzoate	407.65	
13887-00-8	9-Eicosyl-9-phosphabicyclo[3.3.1]nonane		748.15
13887-02-0	9-Phosphabicyclo[3.3.1]nonane	390.15	493.15
13889-92-4	S-Propyl carbonochloridothioate		428.15
13889-98-0	1-Acetylpiperazine	492.15	
13894-63-8	Methyl (E)-2-hexenoate		406.65
13898-68-5	3-Ethoxy-N,N-diethyl-4-hydroxybenzamide	365.65	
139-02-6	Sodium phenoxide	332.65	
139-07-1	Benzyldodecyldimethylammonium chloride	315.15	
139-08-2	Benzyldimethyltetradecylammonium chloride	336.15	
139-13-9	Nitrilotriacetic acid	515.15	
139-29-7	4-Nitro-N-(3-nitrophenyl)benzamide	500.15	
139-33-3	Disodium ethylenediaminetetraacetate	525.15	
139-40-2	Propazine	502.85	
139-44-6	Trihydroxystearin	362.55	
139-45-7	Tripropionin		448.65
139-56-0	Salazosulfamide	493.15	
139-59-3	(4-Aminophenoxy)benzene	356.15	461.15
139-61-7	4-(Cyclohexyloxy)benzoic acid	452.15	
139-65-1	4,4′-Diaminodiphenyl sulfide	381.65	634.15
139-66-2	Diphenyl sulfide	247.25	569.15
139-71-9	N-(3-Chlorophenyl)formamide	329.65	
139-76-4	N-[2-(3,4-Dimethoxyphenyl)ethyl]-2-(3,4-dimethoxyphenyl)acetamide	397.15	
139-77-5	N-(3-Methoxyphenyl)urea	407.65	
139-85-5	3,4-Dihydroxybenzaldehyde	426.15	
139-87-7	N-Ethyldiethanolamine	223.15	520.15
139-89-9	Trisodium HEDTA	561.15	
139-90-2	1,1′-[[2-[(2-Hydroxyethyl)(2-hydroxypropyl)amino]ethyl]imino]bis[2-propanol]	553.15	
139-91-3	Furaltadone	479.15	
139-93-5	Arsphenamine	463.15	
139-94-6	N-Ethyl-N′-(5-nitro-2-thiazolyl)urea	501.15	
1390-65-4	Carmine	572.15	
13900-61-3	(3β,16β)-3,17-Dihydroxy-16-methylpregn-5-en-20-one	512.15	
13905-48-1	1-Bromo-3-methylcyclohexane		454.15
13906-09-7	2-Mercapto-4(3H)-quinazolinone	588.65	
139079-39-3	7-Hydroxyquetiapine	493.15	
13908-34-4	N-(2-Chloroethyl)-N′-(3-chlorophenyl)urea	372.15	
13908-44-6	2-[[[(2-Chloroethyl)amino]carbonyl]amino]benzoic acid	572.15	
13908-59-3	N-(2-Chloroethyl)-N′-8-quinolinylurea	430.15	
13908-93-5	N′-Cyclohexyl-N-(2-fluoroethyl)-N-nitrosourea	308.15	
13909-63-2	4-Methyl-N-[(phenylamino)carbonyl]benzenesulfonamide	437.15	
13909-73-4	2′,3′,4′-Trimethoxyacetophenone	288.95	569.15
13911-20-1	3,4-Dichloro-α-methoxybenzeneacetic acid	362.15	
13911-65-4	Methylphenylarsinic acid	449.15	
139110-80-8	Zanamivir	527.15	
13912-65-7	1,3,3a,4,5,9b-Hexahydro-5-(tetrahydro-2,5-dioxo-3-furanyl)naphtho[1,2-c]furan-1,3-dione	462.65	
13912-77-1	Octacaine	319.65	
139149-55-6	N-[(3S)-2,3-Dihydro-6-(phenylmethoxy)-3-benzofuranyl]-N-hydroxyurea	446.15	
13915-60-1	Benzenecarbothioic acid, 4-chloro-, O-ethyl ester	307.65	
13917-17-4	rel-(1R,2R)-2-Amino-1,2,3,4-tetrahydro-1-naphthalenol	362.65	
13918-37-1	Fayalite	1478.15	
139189-30-3	Resorcinol bis(di-2,6-xylyl phosphate)	368.8	
1392-21-8	Leucomycin	409.65	
13920-98-4	5-(Methylsulfonyl)-2(3H)-benzoxazolone	496.65	
13922-41-3	1-Naphthylboronic acid	475.15	
13925-00-3	2-Ethylpyrazine	428.15	425.65
13925-03-6	2-Ethyl-6-methylpyrazine	333.15	
13925-06-9	2-Isobutyl-3-methylpyrazine	347.15	
13925-07-0	2-Ethyl-3,5-dimethylpyrazine	338.15	
13925-08-1	2-Methyl-5-vinylpyrazine	338.65	
13925-09-2	2-Ethenyl-6-methylpyrazine	347.65	
13925-12-7	Myxin	422.15	
13927-71-4	(SP-4-1)-Bis(N,N-dibutylcarbamodithioato-κS,κS′)copper	333.65	
13929-35-6	Rifamycin B	444.65	
1393-48-2	Thiostrepton	502.15	
1393-87-9	Fusafungine	400.15	
13930-31-9	Oxetacaine hydrochloride	419.65	
139306-10-8	(S)-3-[1-(Dimethylamino)ethyl]phenol	374.65	
13932-40-6	5-(1,3-Benzodioxol-5-ylmethyl)-2,4-pyrimidinediamine	511.15	
13933-75-0	(3α,5α,20R)-Pregnane-3,17,20-triol	500.65	
13934-61-7	Pregn-5-ene-21-carboxylic acid, 3,17-dihydroxy-, γ-lactone, (3β,17α)-	463.65	
13936-21-5	2-Pentyl-9,10-anthracenedione	358.15	
13938-94-8	Carbonylchlorobis(triphenylphosphine)rhodium	474.65	
13939-06-5	Molybdenum hexacarbonyl	423.65	428.15
13939-40-7	Lanthanum vanadate (LaVO4)	1273.15	
13943-58-3	Potassium ferrocyanide		377.35
13945-53-4	Ethyl N-[(4-chlorophenyl)sulfonyl]carbamate	365.65	
13945-57-8	Carbamic acid, [(4-methyl-3-nitrophenyl)sulfonyl]-, ethyl ester	399.15	
13945-59-0	Carbamic acid, [[4-(acetylamino)phenyl]sulfonyl]-, ethyl ester	445.15	
13945-76-1	Lauryl laurate	300.15	499.15
13946-02-6	6-Methyl-N-(1-methylethyl)-2-heptanamine		357.65
13947-20-1	1,2-Benzisothiazol-3(2H)-one, 2-(hydroxymethyl)-, 1,1-dioxide	400.15	
13947-84-7	Ethyl N-cyanocarbamimidate	392.15	
139481-59-7	Candesartan	457.15	
13949-67-2	2-(1-Naphthalenyloxy)propanoic acid	421.65	
13951-70-7	16α-Hydroxyprednisolone	503.15	
13952-84-6	(±)-sec-Butylamine	169.15	336.15
139523-30-1	Buddlejasaponin IV	562.15	
139528-85-1	Metosulam	484.15	
13954-38-6	1,1′,1′′-Phosphinidynetris[piperidine]	310.15	
13956-29-1	Cannabidiol	340.15	461.65
13957-27-2	1-(2-Bromoethynyl)cyclohexanol	329.15	
13957-31-8	4-Thiouridine	412.65	
13957-35-2	4-[3-Amino-1-(4-hydroxyphenyl)butyl]-2-methylphenol	453.15	
13957-38-5	2H-1,2,4-Benzothiadiazine-7-sulfonamide, 6-chloro-3,4-dihydro-3-[[(phenylmethyl)thio]methyl]-, 1,1-dioxide	483.65	
13963-57-0	Aluminum acetylacetonate	462.15	588.15
13963-59-2	Iron diethyldithiocarbamate	438.15	
13965-03-2	Dichlorobis(triphenylphosphine)palladium	570.65	
13965-63-4	(αR,5α,7α)-4,5-Epoxy-3,6-dimethoxy-α,17-dimethyl-α-(2-phenylethyl)-6,14-ethenomorphinan-7-methanol	375.65	
1397-78-0	Actinomycin A	523.15	
1397-94-0	Antimycin A	414.65	
13973-88-1	Chlorine azide (Cl(N3))	173.15	258.15
139755-83-2	Sildenafil	462.15	
13977-28-1	Bromadryl	424.15	
13977-33-8	Demelverine	433.15	
13977-56-5	Iron vanadium oxide (FeVO4)	1143.15	
13979-81-2	3,5-Dibromo-4-methylphenol	370.15	556.15
13979-94-7	2,4,6,8-Tetraazanonane-1,9-diol, 2,4,6,8-tetranitro-, 1,9-dinitrate	475.15	
1398-78-3	Colocynthin	432.15	
13980-00-2	1-(Hexahydro-3,5,7-trinitro-1,3,5,7-tetrazocin-1(2H)-yl)ethanone	497.6	
13980-04-6	Hexahydro-1,3,5-trinitroso-1,3,5-triazine	378.15	
13984-07-1	Benzenaminium, N-methyl-N-[5-(methylphenylamino)-2,4-pentadien-1-ylidene]-, chloride (1:1)	395.65	
13984-57-1	Hexanoic acid, 5-oxo-, ethyl ester		494.65
13985-56-3	2-Ethyl-1,3-dinitrobenzene	330.65	
13985-60-9	2-Ethyl-1,3,5-trinitrobenzene	311.65	
13986-26-0	Zirconium iodide (ZrI4)	772.15	
13987-01-4	Tripropylene	428.65	423.15
13987-61-6	2-Methyl-N-methylene-2-propanamine		337.15
13987-76-3	3,5,7-Trimethyl-1-adamantanol	395.2	
13991-37-2	trans-2-Pentenoic acid	466.15	447.65
13993-31-2	5-Bromo-1H-indole-3-butanoic acid	416.15	
13993-65-2	Metiazinic acid	417.15	
13997-19-8	Nequinate	560.65	
13997-20-1	4-Ethyl-2-oxazolidinethione	347.65	
13997-73-4	2-Allyl-4-chlorophenol	321.15	
13998-73-7	N,N′-(Iminodi-3,1-propanediyl)bis[octadecanamide]	389.15	
13999-39-8	4,5-Dimethyl-3-isoxazolamine	389.15	
140-10-3	trans-Cinnamic acid	406.15	573.15
140-11-4	Benzyl acetate	222.15	486.15
140-19-2	N-(2-Thienylmethyl)-2-pyridinamine	354.15	
140-22-7	Diphenylcarbazide	443.15	
140-24-9	Dibenzyl sebacate	301.45	530.15
140-25-0	Benzyl laurate	281.65	
140-26-1	Phenylethyl isovalerate		537.15
140-28-3	Benzathine	299.15	485.65
140-29-4	Phenylacetonitrile	249.35	506.65
140-31-8	1-Piperazineethanamine		495.15
140-38-5	4-Chlorophenylurea	485.15	
140-39-6	4-Methylphenyl acetate	321.65	485.65
140-40-9	2-(Acetylamino)-5-nitrothiazole	537.65	
140-49-8	N-[4-(2-Chloroacetyl)phenyl]acetamide	485.15	
140-50-1	N,N′-Diacetyl-p-phenylenediamine	477.15	
140-53-4	(4-Chlorophenyl)acetonitrile	303.15	
140-55-6	(3S,6S)-6-Propyl-3-piperidinol	374.15	
140-57-8	Aramite	241.45	
140-63-6	Propamidine isethionate	508.15	
140-64-7	Pentamidine isethionate	453.15	
140-65-8	Pramoxine		469.15
140-66-9	4-tert-Octylphenol	357.65	
140-67-0	Estragole	304.65	488.65
140-72-7	Cetylpyridinium bromide	337.65	
140-75-0	4-Fluorobenzylamine	456.15	
140-76-1	2-Methyl-5-vinylpyridine	261.15	454.15
140-77-2	Cyclopentanepropanoic acid	404.15	404.15
140-79-4	N,N′-Dinitrosopiperazine	431.15	
140-80-7	N,N-Diethyl-1,4-pentanediamine	316.15	474.15
140-82-9	2-[2-(Diethylamino)ethoxy]ethanol		494.65
140-87-4	Cyanoacetic acid hydrazide	387.9	
140-88-5	Ethyl acrylate	201.95	372.55
140-89-6	Potassium ethylxanthate	483.15	
140-95-4	Dimethylolurea	399.15	
1400-58-4	4,4-Bis(2-carboxyphenyl) 5-oxo-1,3-dioxolane-4,4-diacetate	428.65	
1400-61-9	Nystatin	318.15	
14001-64-0	4,6-Dimethyl-2-(methylthio)pyrimidine	297.15	
14002-51-8	[1,1′-Biphenyl]-4-carbonyl chloride	386.15	
14002-89-2	4,6-Dimethylcoumarin	425.15	
14003-34-0	3-Methyl-2(1H)-quinoxalinone	518.15	
14003-66-8	5-Methyl-4-nitroimidazole	516.65	
14005-50-6	4-Phenyl-2-quinazolinamine	399.65	
14007-05-7	Piperazine, hydrobromide (1:?)	484.15	
14007-50-2	Pregn-4-ene-3,20-dione, 21-(1-oxo-3-phenylpropoxy)-	412.65	
14007-53-5	1-Piperidinebutanamide, α,α-diphenyl-, hydrochloride (1:1)	493.15	
14007-64-8	Butetamate		441.15
14008-44-7	Metopimazine	443.65	
14008-48-1	Bisoxatin acetate	463.15	
14008-53-8	Thiophene, 3-bromotetrahydro-, 1,1-dioxide	319.65	
14008-60-7	2-Hydroxy-3-methylbenzamide	381.15	
14008-96-9	3-[2-(1-Pyrrolidinyl)ethyl]-1H-indole	382.65	
1401-20-3	C.I. Natural Yellow 5	510.15	
1401-55-4	Tannins	473.15	
1401-69-0	Tylosin	403.15	
1401-79-2	β-Alanine, N-(2,4-dihydroxy-3,3-dimethyl-1-oxobutyl)-, (R)-, compd. with viomycin, sulfate (salt) (1:1:1)	515.15	
14010-23-2	Ethyl heptadecanoate	301.15	
14013-30-0	Dimethylaminoethylthiosulfuric acid	464.15	
14016-29-6	Averufin	563.65	
14019-65-9	1,2-Benzenedimethanol, 1,2-diacetate	383.65	
1402-38-6	Actinomycin	502.65	
1402-66-0	Actinomycin B	528.15	
1402-83-1	Angolamycin	439.65	
14022-55-0	(3β,16β)-3-Hydroxy-2′-methyl-5′H-pregn-5-eno[17,16-d]oxazol-20-one	475.65	
14023-01-9	Chromium(3+), hexakis(urea-κO)-, chloride (1:3), (OC-6-11)-	346.15	
14024-18-1	Iron(III) acetylacetonate	450.65	
14024-61-4	Palladium acetylacetonate	480.65	
14024-63-6	Zinc acetylacetonate	400.15	
14025-79-7	α-Cyanobenzeneacetic acid	347.15	
14027-78-2	Dipentyl adipate	259.15	
14028-44-5	Amoxapine	448.65	
1403-36-7	Chetomin	488.15	
1403-66-3	Gentamicin	378.15	
1403-88-9	Levomycin	496.15	
14030-00-3	1-[(Phenylmethoxy)carbonyl]-L-prolyl-L-alanine	434.65	
14034-57-2	Benzenamine, 4-methylbenzenesulfonate (1:1)	503.65	
14034-66-3	Piperidine, 4-methylbenzenesulfonate (1:1)	403.15	
14036-25-0	2,3-Diphenyl-1-[2-(1-pyrrolidinyl)ethyl]-1H-indole	391.15	
1404-04-2	Neomycin	523.15	
1404-15-5	Nogalamycin	468.65	
1404-19-9	Oligomycin	409.2	
1404-20-2	Peliomycin	435.15	
1404-59-7	Rutamycin	390.65	
1404-64-4	(+)-Sparsomycin	481.65	
14040-11-0	Tungsten hexacarbonyl	442.65	
14040-77-8	N1,N2-Dipropylethanediamide	436.15	
14045-28-4	1-(1-Piperidinyl)-1-propanone	352.65	
140456-78-6	Ammonium dinitramide	364.15	
14046-99-2	Ajmalanium, 17,21-dihydroxy-4-propyl-, bromide (1:1), (17R,21α)-	585.65	
14047-09-7	TCAB	468.65	
14047-29-1	4-Carboxyphenylboronic acid	492.65	
14047-53-1	3-Hydroxy-2-pyridinemethanol	405.15	
14047-60-0	Sodium nonanoate	515.15	
14048-30-7	Methyl 2,3-di-O-methyl-α-D-glucopyranoside	354.15	
14049-36-6	Silane, chlorotrifluoro-	135.15	203.15
1405-41-0	Gentamicin sulfate	500.65	
1405-86-3	Glycyrrhizic acid	493.15	
1405-97-6	Gramicidin	502.15	
14059-92-8	4-Ethylsyringol		546.15
1406-14-0	Tyrocidine, hydrochloride	511.15	
1406-18-4	Vitamin E	565.15	
14062-18-1	Benzeneacetic acid, 4-methoxy-, ethyl ester	358.15	412.15
14062-24-9	Benzeneacetic acid, 4-chloro-, ethyl ester	306.15	
14062-25-0	Ethyl 2-(4-bromophenyl)acetate	303.15	
14062-34-1	m-Aminobenzhydrazide	351.15	
14062-80-7	4-Chloro-N,N-dimethylbenzamide	330.65	
14063-77-5	3-Chloro-3-(4-chlorophenyl)-2-propenal	376.65	
14063-78-6	3-(4-Bromophenyl)-3-chloro-2-propenal	374.65	
14063-79-7	3-Chloro-3-(4-methoxyphenyl)-2-propenal	333.15	
14063-83-3	4-Chloro-2H-1-benzothiopyran-3-carboxaldehyde	314.65	
14064-10-9	1,3-Diethyl 2-chloropropanedioate		495.15
14064-55-2	1-Chloro-4-[(1E)-2-(4-nitrophenyl)ethenyl]benzene	417.15	
14066-19-4	Phosphate(2-)	498.65	
14066-20-7	Dihydrogen phosphate	487.1	
14066-79-6	Chlorprednisone acetate	491.15	
14066-85-4	Piperidine, hydrobromide (1:1)	493.15	
14068-53-2	2-Amino-5-ethyl-1,3,4-thiadiazole	463.65	