CAS	name	Tm	Tb
1120-62-3	3-Methylcyclopentene	397.65	338.05
1120-64-5	2-Methyl-2-oxazoline		384.15
1120-71-4	Propane sultone	304.15	
1120-72-5	2-Methylcyclopentanone	198.15	412.65
1120-73-6	2-Methyl-2-cyclopenten-1-one		430.15
1120-87-2	4-Bromopyridine	273.65	302.15
1120-89-4	Benzene-d	273.25	352.75
1120-90-7	3-Iodopyridine	326.65	
1120-97-4	4-Methyl-1,3-dioxane	228.65	387.15
1120-99-6	3-Amino-1,2,4-triazine	445.15	
112006-75-4	2-Aminosulfonyl-N,N-dimethylnicotinamide	476.65	
112068-01-6	α,α-Diphenyl-L-prolinol	347.15	
1121-03-5	2,4-Butanesultone	259.15	
1121-07-9	N-Methylsuccinimide	344.15	507.15
1121-20-6	rel-(4R,5S)-4,5-Dimethyl-1,3-dioxane		407.15
1121-22-8	trans-1,2-Diaminocyclohexane	507.15	353.15
1121-24-0	2-Mercaptophenol	278.65	490.15
1121-25-1	3-Hydroxy-2-methylpyridine	438.15	
1121-30-8	Pyrithione	342.15	
1121-31-9	2-Mercaptopyridine N-oxide	344.65	
1121-37-5	Dicyclopropyl ketone	317.4	434.15
1121-47-7	Furfural oxime	348.65	
1121-58-0	4-(Methylamino)pyridine	389.65	
1121-60-4	2-Pyridinecarboxaldehyde	422.65	453.15
1121-61-5	4-Ethyl-1,3-dioxane		414.15
1121-64-8	3-Cyclohepten-1-one		453.65
1121-70-6	Phenol, 4-methyl-, sodium salt (1:1)	397.15	
1121-74-0	Phenol, 4-chloro-, potassium salt (1:1)	486.65	
1121-76-2	Pyridine, 4-chloro-, 1-oxide	461.15	
1121-78-4	5-Hydroxy-2-methylpyridine	439.15	
1121-89-7	Glutarimide	425.65	
1121-92-2	Azocan	302.15	
1121-96-6	1,2-Dithiolane-4,4-dimethanol	402.65	
112111-43-0	(-)-Modafinil	431.65	
112127-66-9	4,5-Dihydro-5-methyl-6-[4-(4-oxo-1(4H)-pyridinyl)phenyl]-3(2H)-pyridazinone	529.65	
112143-82-5	Triazamate	326.15	
1122-10-7	3,4-Dibromo-1H-pyrrole-2,5-dione	500.15	
1122-12-9	3,4-Dibromo-2,5-furandione	391.65	
1122-17-4	Dichloromaleic anhydride	390.65	394.65
1122-26-5	Cyclohexanone, 2-methyl-, oxime	311.65	
1122-28-7	4,5-Dicyanoimidazole	448.15	
1122-39-0	2,4,5-Trimethylpyridine		461.15
1122-41-4	2,4-Dichlorobenzenethiol	293.15	
1122-43-6	2,6-Dimethyl-3-pyridinol	476.4	
1122-47-0	1-Methylcytosine	551.65	
1122-54-9	4-Acetylpyridine	289.15	485.15
1122-56-1	Cyclohexanecarboxamide	457.65	
1122-58-3	4-(Dimethylamino)pyridine	385.15	435.15
1122-60-7	Nitrocyclohexane	239.15	
1122-62-9	2-Acetylpyridine	356.15	465.15
1122-69-6	2-Ethyl-6-methylpyridine		433.65
1122-71-0	6-Methyl-2-pyridinemethanol	369.15	
1122-72-1	6-Methyl-2-pyridinecarboxaldehyde	303.15	
1122-81-2	4-Propylpyridine	404.45	458.15
1122-82-3	Cyclohexyl isothiocyanate	358.15	493.15
1122-83-4	N-Sulfinylbenzenamine		473.15
1122-84-5	1-Ethoxycyclohexene		320.65
1122-85-6	Phenyl cyanate	324.15	
1122-91-4	4-Bromobenzaldehyde	340.15	
1122-96-9	4-Methoxypyridine N-oxide	355.15	
1122-97-0	4-(Methylthio)benzenethiol	314.65	
112212-20-1	6-Nitro-7-hydroxycoumarin	493.15	
112225-87-3	1,2-Dibenzoyl-1-(tert-butyl)hydrazine	451.65	
112245-13-3	(2S)-2-Amino-3,3-dimethyl-1-butanol	305.15	
112245-94-0	(3S,4R)-4,6-Dihydro-8-hydroxy-3,4,5-trimethyl-6-oxo-3H-2-benzopyran-7-carboxylic acid	446.65	
112281-77-3	Tetraconazole	279.15	
1123-00-8	Cyclopentaneacetic acid	286.65	501.15
1123-09-7	3,5-Dimethyl-2-cyclohexen-1-one	439.15	481.65
1123-25-7	1-Methylcyclohexanecarboxylic acid	312.15	
1123-27-9	1-(1-Hydroxycyclohexyl)ethanone		398.65
1123-40-6	4,4-Dimethyl-2,6-piperidinedione	418.65	
1123-61-1	2,3-Dichloro-N-methylmaleimide	358.15	
1123-63-3	4-Chloro-2,6-dimethylphenol	356.15	
1123-73-5	3-Ethyl-2-methylphenol	340.15	
1123-84-8	1,4-Dichloro-2-ethenylbenzene	281.45	
1123-85-9	2-Phenyl-1-propanol	399.15	386.15
1123-86-0	Cyclohexyl ethyl ketone		469.15
1123-91-7	5-Methyl-2,1,3-benzoselenadiazole	345.9	
1123-94-0	4-Ethyl-3-methylphenol		502.15
1123-96-2	2-Ethyl-3,5-dimethylpyridine	344.65	471.15
1124-04-5	2-Chloro-4,5-dimethylphenol	345.15	
1124-05-6	2,5-Dichloro-p-xylene	344.15	495.15
1124-07-8	2,4-Dichloro-5-methylphenol	346.15	507.15
1124-09-0	2,4,5-Trihydroxytoluene	401.15	
1124-11-4	Tetramethylpyrazine	358.15	463.15
1124-13-6	(±)-trans-1,2-Cyclobutanedicarboxylic acid	403.65	
1124-16-9	3-Methyl-1-(1-methylethyl)-1H-pyrazol-5-amine	384.15	
1124-19-2	Phenyltin trichloride	242.15	415.65
1124-20-5	m-Cymenene		458.15
1124-24-9	p-Menth-1(7)-ene		447.15
1124-33-0	4-Nitropyridine N-oxide	433.65	
1124-39-6	4-Ethyl-1,2-benzenediol	314.65	
1124-53-4	N-Cyclohexylacetamide	376.15	
1124-54-5	Cyclohexyl carbamate	380.65	
1124-64-7	Butylpyridinium chloride	359.55	
1124-65-8	3-(2-Thienyl)-2-propenoic acid	416.65	
112410-23-8	Tebufenozide	464.15	
112457-95-1	4,7-Methano-1H-isoindole-1,3(2H)-dione, hexahydro-2-[4-[4-(2-pyrimidinyl)-1-piperazinyl]butyl]-, (3aR,4S,7R,7aS)-rel-, 2-hydroxy-1,2,3-propanetricarboxylate (1:1)	442.9	
1125-12-8	3-Thujanone		477.15
1125-21-9	Ketoisophorone	288.65	
1125-23-1	2-Cyclopentyl-2-methyl-1,3-propanediol	368.65	
1125-27-5	(Dichloroethylsilyl)benzene		498.65
1125-30-0	1,3,5-Trimethyl-4-nitro-1H-pyrazole	344.65	
1125-60-6	5-Aminoisoquinoline	401.15	
1125-78-6	5,6,7,8-Tetrahydro-2-naphthol	330.15	548.65
1125-80-0	3-Methylisoquinoline	341.15	522.15
1125-96-8	3-(4,5-Dihydro-1H-pyrrol-2-yl)pyridine	317.15	566.15
1125-99-1	1-(1-Cyclohexen-1-yl)pyrrolidine	386.15	
112522-64-2	Tacedinaline	489.25	
112529-15-4	Pioglitazone hydrochloride	466.65	
112573-73-6	Ecadotril	344.15	
1126-00-7	1-Phenylpyrazole	411.15	414.65
1126-18-7	2-Butylcyclohexanone		363.65
1126-20-1	2-Allyloxyphenol	303.35	
1126-46-1	Methyl 4-chlorobenzoate	316.65	
1126-47-2	1,2-Dithiolane-3,5-dicarboxylic acid	471.15	
1126-58-5	Girard's P reagent	474.65	
1126-61-0	Hydroxychavicol	321.15	
1126-67-6	N-(2-Aminoethyl)octahydroazocine	421.65	502.65
1126-71-2	Dimethylphenethylamine	481.15	472.15
1126-74-5	3-(3-Pyridinyl)-2-propenoic acid	506.15	
1126-75-6	(2-Methylpropoxy)benzene		470.65
1126-78-9	N-Butylaniline	258.75	516.65
1126-79-0	Butyl phenyl ether	253.75	483.15
1126-80-3	(Butylthio)benzene	252.35	
1126-81-4	4-Acetamidothiophenol	422.65	
112665-43-7	Seratrodast	401.65	
1127-09-9	4-Methyl-4-(1-methylethyl)-2,6-piperidinedione	438.65	
1127-35-1	3-Oxo-2,3-dihydrobenzo[b]thiophene 1,1-dioxide	407.65	
1127-45-3	8-Hydroxyquinoline N-oxide	411.15	
1127-59-9	7-Methylisatin	485.15	
1127-76-0	1-Ethylnaphthalene	259.25	531.75
112704-79-7	4-Bromo-2-fluorobenzoic acid	479.15	
112709-59-8	(-)-Vesamicol	512.4	
112726-66-6	BTCP	353.15	
1128-05-8	3-Acetylbenzothiophene	337.65	
1128-16-1	3,5-Dichloro-2-(trichloromethyl)pyridine	309.15	
1128-23-0	Reduced ascorbate	454.15	
1128-28-5	4-Amino-5-methyl-2-(1-methylethyl)phenol	388.15	
1128-32-1	2,3-Dimethoxy-5-methylphenol	329.65	
1128-44-5	4-Methylisatin	462.15	
1128-53-6	1-Phenyl-1H-pyrazol-4-amine	377.65	
1128-54-7	3-Methyl-1-phenyl-1H-pyrazole	310.15	528.15
1128-61-6	6-Fluoro-2-methylquinoline	331.15	
1128-67-2	3-Methyl-2-benzothiazolinone hydrazone	416.65	
1128-76-3	Benzoic acid, 3-chloro-, ethyl ester		516.15
112808-22-7	2,3-Dihydro-2,8-bis(1-methylethyl)-3-thioxo-4H-1,4-benzoxazine-4-acetic acid	431.65	
112809-51-5	Letrozole	455.15	
112811-59-3	Gatifloxacin	440.65	
112811-90-2	2-[(Phenylmethyl)thio]-3-pyridinecarboxylic acid	464.65	
112839-33-5	Furconazole	435.15	
112885-41-3	Mosapride	425.15	
112887-68-0	Raltitrexed	455.15	
1129-26-6	4-Methoxybenzenesulfonamide	389.15	
1129-28-8	Methyl 3-(bromomethyl)benzoate	319.65	
1129-30-2	2,6-Diacetylpyridine	352.15	
1129-35-7	Methyl 4-cyanobenzoate	335.15	
1129-37-9	4-Nitrobenzaldehyde oxime	401.15	
1129-41-5	Metolcarb	349.65	
1129-42-6	N-(Hexahydro-6-methyl-2-oxo-4-pyrimidinyl)urea	523.15	
1129-47-1	Cyclohexyl isobutyrate		477.15
1129-50-6	N-Phenylbutanamide	370.15	462.15
1129-52-8	2,4,6-Tris(chloromethyl)-1,3,5-trioxane	361.65	
1129-53-9	3,4-Dihydroxyphenylacetamide	419.15	
1129-62-0	2-Butanone, 2-phenylhydrazone	390.15	
1129-67-5	Cyclohexanepropanol, 1-formate		380.65
1129-88-0	Resorcinol dicyanate	353.15	
112924-45-5	Dexanabinol	414.65	
112965-21-6	Calcipotriol	440.15	
113-00-8	Guanidine	323.15	
113-15-5	Ergotamine	486.65	
113-18-8	Ethchlorvynol		446.65
113-38-2	Estradiol, dipropionate	377.65	
113-42-8	Methylergometrine	445.15	
113-45-1	Methylphenidate	347.65	
113-48-4	Dicarboximide	253.15	
113-52-0	Imipramine hydrochloride	447.65	
113-53-1	Dothiepin	329.15	444.65
113-59-7	Chlorprothixene	370.65	
113-69-9	Benzquinamide hydrochloride	503.15	
113-92-8	Chlorpheniramine maleate	405.65	
113-98-4	Penicillin G potassium	488.65	
1130-23-0	Cyclohexaneacetic acid, α-ethyl-1-hydroxy-, sodium salt (1:1)	572.65	
1130-32-1	3-Azaspiro[5.5]undecane-2,4-dione	441.15	
113036-88-7	Flucycloxuron	416.75	
113079-82-6	1,4-Dihydro-1-(methoxymethyl)-4-oxo-N-propyl-3-quinolinecarboxamide	432.15	
1131-01-7	2-Chloro-N-(2,6-dimethylphenyl)acetamide	418.65	
1131-09-5	Benzo[b]thiophene-3-acetic acid	382.15	
1131-16-4	3,5-Dimethyl-1-phenylpyrazole	365.15	546.15
1131-18-6	5-Amino-3-methyl-1-phenylpyrazole	389.15	606.15
1131-40-4	2-Bromo-1,3,5-trimethoxybenzene	371.15	
1131-60-8	4-Cyclohexylphenol	406.15	567.15
1131-61-9	Pyridine, 4-phenyl-, 1-oxide	424.65	
1131-62-0	3,4-Dimethoxyacetophenone	324.15	560.15
1131-63-1	5,6,7,8-Tetrahydro-2-naphthoic acid	428.65	
1131-64-2	Debrisoquine	552.15	
1131-68-6	2-Quinolinecarboxaldehyde, oxime	461.65	
1131-81-3	Benzenemethanethiol, α-[[(1-methylethyl)amino]methyl]-, hydrochloride (1:1)	449.15	
113136-77-9	Cyclanilide	468.65	
113158-40-0	Fenoxaprop P	431.15	
1132-03-2	2-(Hydroxyimino)-N-(2-methylphenyl)acetamide	389.15	
1132-21-4	3,5-Dimethoxybenzoic acid	458.65	
1132-26-9	DL-α-Methylphenylalanine	566.65	
1132-39-4	1,1′-Selenobis[benzene]	275.65	574.65
1132-42-9	N-Cyclohexyl-3-oxobutanamide	347.65	
1132-61-2	MOPS	557.15	
1132-68-9	4-Fluoro-L-phenylalanine	526.65	
1132-96-3	4,4-Dipropyl-2,6-piperidinedione	398.15	
1133-12-6	N-Propyl-p-toluenesulfonamide	327.65	
1133-57-9	1,2,3,5-Tetrachloro-4,6-bis(chloromethyl)benzene	407.15	
1133-72-8	2-Acetyl-1H-indene-1,3(2H)-dione	383.15	
1133-79-5	6,7,8,9-Tetrahydro-2-dibenzofuranol	375.65	
1133-80-8	2-Bromofluorene	386.65	458.15
113387-59-0	Thieno[3,4-d]isothiazole, 3-(1H-pyrazol-1-yl)-, 1,1-dioxide	525.15	
113393-59-2	4-Methyl-7-(1-methylethenyl)-1-azulenemethanol	373.65	
1134-01-6	N-Methylserotonin	427.65	
1134-04-9	2,3,4,5-Tetrachloro-6-(trichloromethyl)pyridine	332.15	
1134-23-2	Ro-Neet 6E	284.65	
1134-35-6	4,4′-Dimethyl-2,2′-bipyridine	444.65	
1134-36-7	2-Amino-4-phenylphenol	481.15	
1134-40-3	2,3,6,7-Tetramethylnaphthalene	464.15	
1134-47-0	Baclofen	480.15	
1134-50-5	1-Phenyl-1H-pyrazole-4-carboxylic acid	369.65	
1134-94-7	2-(Phenylthio)aniline	304.65	
1135-14-4	4-(Phenylthio)benzenamine	367.15	
1135-23-5	Dihydroferulic acid	362.65	
1135-24-6	Ferulic acid	442.15	
1135-32-6	1,2-Bis(4-pyridyl)ethylene	424.65	
1135-40-6	3-(Cyclohexylamino)-1-propanesulfonic acid	575.65	
1135-51-9	2,2′-[1,2-Ethanediylbis(oxy)]bis[1,3,2-dioxaborolane]	436.15	
1135-61-1	5-Ethyl-5-(2-methylpropyl)-2,4,6(1H,3H,5H)-pyrimidinetrione	447.15	
1135-67-7	1-Phenylcyclohexanecarboxylic acid	394.15	
1135-99-5	Diphenyltin dichloride	315.15	608.15
113559-14-1	Methanesulfonamide, N-[4-[[1-[2-(4-pyridinyl)ethyl]-4-piperidinyl]carbonyl]phenyl]-, hydrochloride (1:2)	533.15	
113559-41-4	Methanesulfonamide, N-[4-[[1-(2-phenylethyl)-4-piperidinyl]carbonyl]phenyl]-, hydrochloride (1:1)	496.15	
1136-45-4	5-Methyl-3-phenylisoxazole-4-carboxylic acid	461.65	
1136-52-3	2,2,8-Trimethyl-4H-1,3-dioxino[4,5-c]pyridine-5-methanol	384.65	
1136-77-2	4,6-Dimethyldibenzofuran	360.15	
1136-86-3	3′,4′,5′-Trimethoxyacetophenone	345.15	
1136-89-6	1-Naphthyl phosphate	429.15	
113658-85-8	Trombodipine	418.15	
113676-50-9	3-(Nonyloxy)-1,2-propanediol	349.05	
1137-41-3	4-Aminobenzophenone	395.65	
1137-42-4	4-Hydroxybenzophenone	406.65	595.65
1137-68-4	2-(2′-Pyridyl)benzimidazole	493.65	
1137-73-1	N-Phenyliminodiacetic acid	423.15	
1137-79-7	N,N-Dimethyl[1,1′-biphenyl]-4-amine	391.15	
1137-96-8	Benzenamine, N-(phenylmethylene)-, N-oxide	385.15	
1137-99-1	1-(2-Hydroxyethyl) 1,4-benzenedicarboxylate	457.65	377.15
1138-47-2	trans-1,2-Diphenylcyclopropane	288.45	
1138-48-3	rel-1,1′-(1R,2S)-1,2-Cyclopropanediylbis[benzene]	311.4	
1138-52-9	3,5-Di-tert-butylphenol	366.9	
1138-58-5	4-Butoxybenzenesulfonamide	381.15	
1138-60-9	Isopropyl gallate	396.9	
1138-80-3	Benzyloxycarbonylglycine	393.15	
113826-06-5	(R)-Glycidyl tosylate	318.65	
113852-37-2	Cidofovir	533.15	
113873-70-4	Carbamic acid, (2-propoxyphenyl)-, 1-[(dimethylamino)methyl]cyclohexyl ester, monohydrochloride	443.15	
1139-17-9	(-)-Isolongifolol	386.15	
1139-30-6	Caryophyllene oxide	337.15	
1139-46-4	4-(1,1,3,3-Tetramethylbutyl)-1,2-benzenediol	383.4	
1139-52-2	4-Bromo-2,6-di-tert-butylphenol	354.15	
1139-60-2	2,6-Dimethylbenzophenone	337.65	
113915-68-7	3,3-Bis[2-(4-dimethylaminophenyl)-2-(4-methoxyphenyl)vinyl]-4,5,6,7-tetrachlorophthalide	407.15	
114-07-8	Erythromycin	360.65	
114-21-6	Benzeneacetic acid, α-hydroxy-, sodium salt (1:1)	540.15	
114-26-1	Propoxur	364.65	
114-32-9	N-(2-Ethylphenyl)urea	415.65	
114-33-0	N′-Methylnicotinamide	376.65	
114-42-1	3,5-Dihydroxy-4,4-dimethyl-2-(1-oxobutyl)-6-[[2,4,6-trihydroxy-3-methyl-5-(1-oxobutyl)phenyl]methyl]-2,5-cyclohexadien-1-one	429.15	
114-43-2	2-[[2,4-Dihydroxy-6-methoxy-3-(1-oxobutyl)phenyl]methyl]-3,5-dihydroxy-4,4-dimethyl-6-(1-oxobutyl)-2,5-cyclohexadien-1-one	423.15	
114-49-8	Scopolamine hydrobromide	469.65	
114-80-7	Neostigmine bromide	440.15	
114-83-0	Acetylphenylhydrazine	404.15	
114-86-3	Phenformin	449.65	
114-90-9	Toxogonin	493.15	
114-91-0	2-(2-Methoxyethyl)pyridine		476.15
1140-14-3	2,4-Dimethylbenzophenone	393.65	594.65
1140-28-9	2′-Nitro[1,1′-biphenyl]-4-amine	372.15	
1140-35-8	9-(2-Chloroethyl)-9H-carbazole	403.65	
114012-12-3	Phaclofen	523.65	
114058-91-2	5-(4-Fluorophenyl)-1,2-dihydro-3H-1,2,4-triazole-3-thione	543.65	
114084-78-5	Ibandronate	357.15	
1141-05-5	1,2-Di-2-pyridinyl-1,2-ethanediol	429.15	
1141-06-6	α-Pyridoin	429.15	
1141-23-7	β-(2-Amino-2-oxoethyl)-4-chlorobenzenepropanoic acid	443.65	
1141-29-3	3′-Nitro[1,1′-biphenyl]-4-amine	400.15	
1141-35-1	2-(4-Chlorophenyl)benzoxazole	423.15	
1141-37-3	4-[Bis(2-chloroethyl)amino]benzoic acid	441.65	
1141-38-4	2,6-Naphthalenedicarboxylic acid		528.15
1141-59-9	4-(2-Pyridylazo)resorcinol	470.15	
1141-88-4	Bis(2-aminophenyl) disulfide	363.15	
1142-15-0	4-Methoxystilbene	405.15	
1142-19-4	4-Chlorophenyl disulfide	341.15	
1142-20-7	Benzyloxycarbonyl-L-alanine	357.15	
1142-27-4	4-Nitrophenyl N,N-dimethylsulfamate	397.15	
1142-39-8	4-(Hexyloxy)benzoic acid	379.4	
1142-70-7	5-(2-Bromo-2-propen-1-yl)-5-(1-methylpropyl)-2,4,6(1H,3H,5H)-pyrimidinetrione	404.65	
1143-30-2	1-Butyl-3,7-dihydro-3,7-dimethyl-1H-purine-2,6-dione	381.15	
1143-38-0	Dithranol	452.15	
1143-50-6	5H-Dibenz[b,e]azepine-6,11-dione	518.65	
1143-72-2	2,3,4-Trihydroxybenzophenone	413.15	
1143-82-4	5-Methyl-3-phenylisoxazole-4-carboxylic acid ethyl ester	322.15	
114311-32-9	Imazamox	439.15	
1143459-92-0	1,3-Benzenediamine, 4-methyl-N3-[4-(3-pyridinyl)-2-thiazolyl]-, hydrochloride (1:2)	586.65	
114369-43-6	Fenbuconazole	398.15	
1144-50-9	Menthyl acetoacetate	309.15	
1144-74-7	4-Nitrobenzophenone	411.15	
114432-13-2	Fantofarone	355.65	
1145-01-3	3,5-Diphenylpyrazole	435.15	
1145-04-6	1-[1,1′-Biphenyl]-4-yl-2,2-dihydroxyethanone	382.65	
1145-48-8	Tetrahydro-5-(2-hydroxyethyl)-3-(phenylmethyl)-2H-1,3,5-thiadiazine-2-thione	398.65	
1145-56-8	N-(2-Chloroacetyl)-L-tyrosine	428.15	
1145-73-9	4-Dimethylaminostilbene	329.15	
1145-76-2	Benzyl 4-nitrophenyl ether	380.15	
1145-80-8	N-(Benzyloxycarbonyl)-L-serine	394.15	
1145-81-9	N-[(Phenylmethoxy)carbonyl]glycine ethyl ester	309.15	
1146-21-0	5-(2-Furanylmethyl)-5-(1-methylethyl)-2,4,6(1H,3H,5H)-pyrimidinetrione	442.15	
1146-43-6	N-(4-Hydroxyphenyl)-p-toluenesulfonamide	421.65	
1146-44-7	Benzenesulfonothioic acid, 4-chloro-, S-(4-chlorophenyl) ester	406.65	
1146-65-2	Naphthalene-d8	350.65	490.25
1146-95-8	1-Butanamine, 2-(diphenylmethylene)-, hydrochloride (1:1)	505.15	
1146-98-1	2-(4-Bromophenyl)-1H-indene-1,3(2H)-dione	411.15	
1146-99-2	Clorindione	418.65	
114607-46-4	Acitazanolast	515.15	
1147-00-8	2-(4-Iodophenyl)-1H-indene-1,3(2H)-dione	418.65	
1147-43-9	2-(2-Aminobenzoyl)benzoic acid	472.15	
1147-62-2	1-Pentanone, 1-(4-methylphenyl)-2-(1-pyrrolidinyl)-, hydrochloride (1:1)	451.15	
1147-65-5	2-[Bis(carboxymethyl)amino]benzoic acid	501.15	
1147-98-4	5-Chloro-N-(4-chlorophenyl)-2-hydroxybenzamide	488.65	
114719-57-2	Fascaplysin	506.65	
114747-44-3	6′-(2,3-Dihydro-1H-indol-1-yl)-1,3-dihydro-1,3,3-trimethylspiro[2H-indole-2,3′-[3H]naphth[2,1-b][1,4]oxazine]	525.15	
114747-45-4	1,3-Dihydro-1,3,3-trimethyl-6′-(1-piperidinyl)spiro[2H-indole-2,3′-[3H]naphth[2,1-b][1,4]oxazine]	502.15	
114766-08-4	[3,7-Bis(diethylamino)-10H-phenoxazin-10-yl][3,5-bis(1,1-dimethylethyl)-4-hydroxyphenyl]methanone	437.15	
114772-53-1	2-Cyano-4′-methylbiphenyl	320.65	
114772-54-2	4-(Bromomethyl)-2′-cyanobiphenyl	394.15	
114798-26-4	Losartan	457.15	
1148-11-4	Benzyloxycarbonyl-L-proline	350.15	
1148-79-4	2,2′:6′,2′′-Terpyridine	363.15	
114873-05-1	N-[(1,1-Dimethylethoxy)carbonyl]-2-methyl-L-phenylalanine	391.65	
1149-23-1	Hantzsch ester	455.65	
1149-24-2	2,6-Dimethyl-3,5-pyridinedicarboxylic acid diethyl ester	344.15	
1149-26-4	Benzyloxycarbonyl-L-valine	337.65	
1149-51-5	Phenylmethyl N-(phenylmethyl)carbamodithioate	337.15	
1149-99-1	(2′S,3′R,6′R)-2′,3′-Dihydro-3′,6′-dihydroxy-2′-(hydroxymethyl)-2′,4′,6′-trimethylspiro[cyclopropane-1,5′-[5H]inden]-7′(6′H)-one	398.15	
114971-52-7	Benzyltrimethylammonium dichloroiodate	398.65	
114977-28-5	Docetaxel	505.15	
115-02-6	Azaserine	427.15	
115-07-1	Propylene	88.15	225.15
115-08-2	Methanethioamide	299.65	
115-09-3	Methylmercury chloride	440.15	
115-10-6	Methyl ether	131.65	248.35
115-11-7	Isobutylene	132.75	266.25
115-17-3	Tribromoacetaldehyde	215.65	447.15
115-18-4	2-Methyl-3-buten-2-ol	245.15	370.15
115-19-5	2-Methyl-3-butyn-2-ol	276.15	377.15
115-20-8	Trichloroethanol	292.15	425.15
115-21-9	Ethyltrichlorosilane	167.55	371.05
115-22-0	3-Hydroxy-3-methyl-2-butanone	357.65	413.65
115-24-2	2,2-Bis(ethylsulfonyl)propane	398.95	573.15
115-25-3	Octafluorocyclobutane	233.05	267.25
115-27-5	Chlorendic anhydride	512.15	
115-28-6	Chlorendic acid	482.15	
115-29-7	Endosulfan	379.15	
115-32-2	Dicofol	350.65	
115-33-3	Contax	515.15	
115-37-7	Thebaine	466.15	
115-38-8	Mephobarbital	449.15	
115-39-9	Bromophenol Blue	552.15	
115-40-2	Bromocresol purple	514.65	
115-41-3	Pyrocatechol violet	484.15	
115-43-5	Alphenal	429.65	
115-44-6	Talbutal	382.15	
115-46-8	Azacyclonol	433.65	
115-51-5	Benzenepropanaminium, γ-(aminocarbonyl)-N-ethyl-N,N-dimethyl-γ-phenyl-, bromide (1:1)	501.15	
115-53-7	Sinomenine	435.15	
115-56-0	5-Ethyldihydro-5-(2-methyl-2-propen-1-yl)-2-thioxo-4,6(1H,5H)-pyrimidinedione	433.65	
115-58-2	5-Ethyl-5-pentyl-2,4,6(1H,3H,5H)-pyrimidinetrione	408.15	
115-63-9	Tral	478.15	
115-67-3	Paramethadione	304.65	
115-68-4	Sulfadicramide	457.65	
115-69-5	2-Amino-2-methyl-1,3-propanediol	383.15	424.65
115-70-8	2-Amino-2-ethyl-1,3-propanediol	310.65	425.65
115-76-4	2,2-Diethyl-1,3-propanediol	334.65	513.65
115-77-5	Pentaerythritol	533.15	549.15
115-78-6	Phosphon	390.15	
115-79-7	Ambenonium chloride	470.65	
115-80-0	Triethyl orthopropionate	557.15	444.15
115-82-2	Silicic acid (H4SiO4) tetrakis(2-ethylhexyl) ester	601.15	692.15
115-84-4	2-Butyl-2-ethyl-1,3-propanediol	316.95	535.15
115-86-6	Triphenyl phosphate	322.65	518.15
115-89-9	Methyl diphenyl phosphate		398.15
115-95-7	Linalyl acetate		493.15
115-96-8	Tris(2-chloroethyl) phosphate	218.15	
1150-26-1	N-(4-Methoxyphenyl)-4-methylbenzenesulfonamide	387.15	
1150-62-5	9-Phenylcarbazole	366.15	
115029-23-7	2-Fluoro-5-(trifluoromethyl)benzoic acid	374.15	
115029-24-8	2-Fluoro-4-(trifluoromethyl)benzoic acid	433.15	
115074-43-6	Calcium mupirocin dihydrate	408.65	
115086-54-9	Imidacloprid-olefin	460.65	
1151-14-0	2-(4-Ethylbenzoyl)benzoic acid	395.15	
1151-15-1	2-(4-Methoxybenzoyl)benzoic acid	419.15	
1151-94-6	4-Methoxy-4′-nitrobenzophenone	429.15	
1151-97-9	2-[(2,4-Dinitrophenyl)methyl]pyridine	366.15	
1152-61-0	Benzyloxycarbonyl-L-aspartic acid	389.15	
1152-62-1	Benzyloxycarbonyl-L-methionine	342.15	
115201-43-9	1-[(4-Butylphenyl)methyl]-1H-1,2,4-triazole	310.65	413.15