CAS	name	Tm	Tb
3060-50-2	2,2-Diphenylglycine	518.15	
3060-89-7	Metobromuron	368.65	
3061-36-7	1,4-Diphenoxybenzene	350.15	
3061-75-4	Behenamide	384.65	
3061-88-9	L-Alanyl-L-tyrosine	512.15	
30614-73-4	3,4-Furandimethanol, 3,4-diacetate	304.15	
3062-19-9	Alanylserine	484.65	
3063-04-5	Glucoheptonolactone	423.15	
3063-05-6	L-Leucyl-L-phenylalanine	492.15	
3063-20-5	Carbamodithioic acid, N-ethyl-, compd. with ethanamine (1:1)	375.15	
30633-94-4	2-[[(4-Butylphenyl)imino]methyl]-5-methoxyphenol	587.45	
3064-70-8	Bis(trichloromethyl) sulfone	310.15	
3064-73-1	Tetraisobutylthiuram disulfide	347.15	
3065-27-8	L-Phenylalanine, N-[(phenylmethoxy)carbonyl]-, 2,4,5-trichlorophenyl ester	414.15	
3065-79-0	3,3′-Diethyl-9-methylthiacarbocyanine iodide	558.15	
30652-11-0	Deferiprone	535.65	
30653-83-9	Parsalmide	357.15	
3066-65-7	C,C′-Diethyl N,N′-1,6-hexanediylbis[carbamate]	357.15	
3066-72-6	N-Cyclohexylacrylamide	386.65	
3066-90-8	2,3-Dimethoxy-5-methyl-1,4-benzenediol	348.15	
3067-12-7	Benzo[a]pyrene-6,12-dione	600.15	
3067-13-8	Benzo[a]pyrene-1,6-dione	563.65	
3067-14-9	Benzo[a]pyrene-3,6-dione	561.65	
3067-19-4	N-Acetylvaline	421.65	
30672-30-1	1,2-Dihydro-1,5-dimethyl-2-(4-nitrophenyl)-3H-pyrazol-3-one	405.15	
30677-46-4	N-Dodecyl-1,2-propanediamine	313.15	
3068-00-6	1,2,4-Butanetriol		440.65
3068-32-4	α-Acetobromogalactose	353.15	
3068-34-6	2-Acetamido-3,4,6-tri-O-acetyl-2-deoxy-α-D-glucopyranosyl chloride	399.65	
30684-05-0	Benzenepropanamine, hydrochloride (1:1)	493.15	
30684-07-2	Benzenepropanamine, N-methyl-, hydrochloride (1:1)	419	
30689-38-4	rel-1,2-Diethyl (1R,2R)-1,2-cyclopentanedicarboxylate	241.02	
3069-19-0	Hexyltrimethoxysilane		475.65
3069-29-2	N-(β-Aminoethyl)-γ-aminopropylmethyldimethoxysilane	449.65	538.15
3069-40-7	Octyltrimethoxysilane		464.65
3069-42-9	Octadecyltrimethoxysilane	288.15	
30693-34-6	1-(4,5-Dihydro-3,5-diphenyl-1H-pyrazol-1-yl)ethanone	402.65	
306935-72-8	4-[(2,4-Dichlorophenyl)amino]-4-oxo-2-butenoic acid	449.15	
307-24-4	Perfluorohexanoic acid	286.15	
307-30-2	1H,1H-Perfluorooctanol	310.15	434.15
307-33-5	Perfluorooctyl chloride		415.65
307-34-6	Perfluorooctane	231.15	379.05
307-43-7	Perfluorodecyl bromide		471.15
307-45-9	Perfluorodecane	309.15	423.15
307-51-7	1,1,2,2,3,3,4,4,5,5,6,6,7,7,8,8,9,9,10,10,10-Heneicosafluoro-1-decanesulfonyl fluoride		463.15
307-55-1	Perfluorododecanoic acid	381.15	522.15
307-59-5	Perfluorododecane	347.65	451.15
307-60-8	Perfluorododecyl iodide	373.15	
307-70-0	2,2,3,3,4,4,5,5,6,6,7,7,8,8,9,9,10,10,11,11-Eicosafluoro-1-undecanol	369.15	
3070-53-9	1,6-Heptadiene	144.15	363.15
30701-38-3	α-D-Glucopyranoside, β-D-fructofuranosyl, ditetradecanoate	415.15	
30707-68-7	1-(2,4,6-Trichlorophenyl)-3-(2-chloro-5-nitroanilino)-5-pyrazolinone	549.15	
30708-80-6	Chlorine fluoride oxide (ClF3O), (T-4)-	207.15	302.55
30709-67-2	5-Methyl-4-phenyl-2-thiazolamine	390.15	
3071-32-7	Ethylbenzene hydroperoxide		318.15
3071-70-3	3,3′-Diethylthiatricarbocyanine iodide	456.65	
30719-67-6	1,1′,6,6′,7,7′-Hexakis(acetyloxy)-3,3′-dimethyl-5,5′-bis(1-methylethyl)[2,2′-binaphthalene]-8,8′-dicarboxaldehyde	458.15	
3072-02-4	1,6-Didodecyl hexanedioate	312.45	
3072-13-7	9,12-Octadecadienamide	324.15	
30725-00-9	2,3-O-Isopropylidene-D-ribonolactone	411.65	
30727-29-8	2-(Dimethylamino)cyclohexanol		471.15
30727-31-2	1-Pyrrolidineethanol, hydrochloride (1:1)	362.15	
3073-59-4	Hexamethylene bisacetamide	398.15	
3073-66-3	3,3,5-Trimethylcyclohexane	207.45	409.75
3073-77-6	2-Amino-5-nitropyrimidine	509.15	
3073-87-8	Dimethyl-POPOP	506.65	
3073-92-5	1-Propoxybutane		391.25
30736-07-3	Bis(1,1-dimethylethyl)silane	235.15	401.15
30738-49-9	4-Bromo-α-(4-bromophenyl)-α-hydroxybenzeneacetic acid	382.15	
3074-00-8	6H-Benzo[cd]pyren-6-one	516.15	
3074-03-1	Benzo[b]fluoren-11-one	426.65	
3074-43-9	1-Methyl-4-phenylpiperazine		414.15
3074-75-7	4-Ethyl-2-methylhexane		406.95
3074-77-9	3-Ethyl-4-methylhexane		413.15
3074-80-4	Carbonodithioic acid, S,S′-1,2-ethanediyl O,O′-dibutyl ester	310.65	
30746-54-4	2-(2-Methyl-5-nitro-1-imidazolyl)ethyl methanesulfonate	412.65	
30746-58-8	1,2,3,4-Tetrachlorodibenzo-p-dioxin	461.15	
30748-29-9	Feprazone	429.65	
30748-85-7	2,4,6-Tris(1-methyl-1-phenylethyl)phenol	414.65	
30751-05-4	Troxipide	455.15	
3076-25-3	Octadecanoic acid, 2-sulfo-, 1-(1-methylethyl) ester, sodium salt (1:1)	349.65	
3076-91-3	Chloro[4-[2-(2-hydroxy-1-naphthalenyl)diazenyl]phenyl]mercury	565.4	
3077-12-1	N,N-Bis(2-hydroxyethyl)-p-toluidine	326.65	612.15
3077-46-1	N-Acetyl-L-isoleucine	423.65	
3077-51-8	L-Glutamic acid, 5-methyl ester, hydrochloride (1:1)	433.65	
3077-85-8	3-Nitrocarbazole	485.15	
3077-97-2	3-Methyl-2-butanone 2-(2,4-dinitrophenyl)hydrazone	396.65	
30777-18-5	Benzo[a]fluorene		686.15
30777-19-6	Benzo[b]fluorene		674.15
30778-28-0	Morpholine, 4-(3,3-diphenyl-2-propen-1-yl)-, hydrochloride (1:1)	491.65	
3078-97-5	O-[4-[(Dimethylamino)sulfonyl]phenyl] O,O-diethyl phosphorothioate	341.15	
30781-73-8	Methanamine, N-methyl-, nitrate (1:1)	348.15	
3079-28-5	Decyl methyl sulfoxide	325.65	
3079-30-9	Dodecyl methyl sulfoxide	337.15	
3079-63-8	N-[(Phenylmethoxy)carbonyl]glycyl-L-alanine	450.15	
30796-92-0	Phenanthro[4,5-bcd]thiophene	412.65	
308-24-7	1,1,2,2,3,3,4,4,5,5,6-Undecafluorocyclohexane	320.15	335.15
308-48-5	1,1′-Oxybis[1,1,2,2,3,3,4,4,4-nonafluorobutane]	173.15	375.15
30805-06-2	2-Azido-4,6-dichloro-1,3,5-triazine	358.15	
30806-83-8	Ethyl 4-isocyanatobenzoate	333.15	
3081-07-0	1,1,3,3,5,5,7,7-Octamethyl-1,7-tetrasiloxanediol	268.15	
3081-20-7	2,2,4,4,5,5-Hexamethyl-1,3-dioxa-2-silacyclopentane		425.65
3081-61-6	L-Theanine	490.65	
30811-80-4	Polycytidylic acid	342.15	
3082-75-5	L-Alanine ethyl ester	438.9	
30826-80-3	1,3-Diethyl-2-imidazolidinethione	405.15	
3083-10-1	Hexamethyltriethylenetetramine	435.15	
3083-23-6	2-(Trichloromethyl)oxirane		422.15
3083-77-0	Uracil arabinoside	487.65	
30833-53-5	Monoisobutyl phthalate	323.15	
3084-25-1	N,N′-Bis(hydroxymethyl)thiourea	364.65	
3084-47-7	Tripentylphosphine oxide	332.15	
3084-48-8	Trihexylphosphine oxide	307.65	
3084-53-5	Sulfonium, trimethyl-, bromide (1:1)	445.15	
3085-30-1	Aluminum tributoxide	375.15	
3085-42-5	1,1′-Sulfinylbis[4-chlorobenzene]	416.15	
3085-45-8	Thiodiglycol sulfoxide	384.15	
3085-53-8	N-(3-Methylphenyl)formamide		563.15
3085-54-9	N-(4-Methylphenyl)formamide	330.15	
3086-62-2	3,4,5-Trimethoxybenzamide	449.15	
3086-72-4	4-Hydroxy-3,5-dimethoxybenzamide	457.65	
3086-91-7	4-Chloro-5-sulfamoylanthranilic acid	540.15	
3087-36-3	Titanium ethoxide	311.15	
3088-15-1	4,6-Dibenzoylresorcinol	424.15	
3088-41-3	1-Piperidinepropanenitrile	266.35	
3088-42-4	N-(2-Cyanoethyl)glycine	463.65	
3089-11-0	Hexakis(methoxymethyl)melamine	314.15	
3089-19-8	2-Methyl-N-[2-(2-oxo-1-imidazolidinyl)ethyl]-2-propenamide	388.9	
3089-23-4	2-Oxo-2-[[2-(2-oxo-1-imidazolidinyl)ethyl]amino]ethyl 2-methyl-2-propenoate	383.65	
3089-24-5	2,2,4-Trimethyl-1,6-hexanediol	371.15	
30896-98-1	6,7,8-Trimethoxy-2,4(1H,3H)-quinazolinedione	544.15	
30899-19-5	Pentanol		411.15
309-00-2	Aldrin	377.15	
3090-36-6	Tributyltin laurate	287.65	
3090-45-7	5,8-Dihydro-1,4-naphthalenediol	485.15	
3090-47-9	1,4-Dihydro-1,4-methanonaphthalene-5,8-diol	416.65	
3090-56-0	2-(Ethenylthio)ethanol		430.65
30901-41-8	1,3-Benzenedicarboxylic acid, 1,3-dimethyl ester, polymer with 1,4-butanediol and 1,4-dimethyl 1,4-benzenedicarboxylate	463.15	
30901-64-5	2-Pyridineacetonitrile, phenyl-	362.15	
3091-32-5	Tricyclohexyltin chloride	402.65	
30910-47-5	Benzenamine, N-phenyl-, hydrobromide (1:1)	501.15	
30914-08-0	Chlorodiethylgallium		334.15
30917-97-6	2-Propenoic acid, 2-methyl-, dodecyl ester, polymer with ethenylbenzene	383.15	
3092-61-3	(11β,16α)-21-(3-Carboxy-1-oxopropoxy)-9-fluoro-11-hydroxy-16,17-[(1-methylethylidene)bis(oxy)]pregna-1,4-diene-3,20-dione	505.15	
30923-82-1	N-(1,1-Dimethylethyl)-N-(phenylmethyl)benzenemethanamine	342.15	
30924-31-3	Cafaminol	378.15	
3093-35-4	Halcinonide	537.15	
30930-49-5	Peroxide, bis(2-thienylcarbonyl)	376.15	
30932-41-3	2,2-Diphenylcyclopropanecarbonitrile	372.65	
3094-09-5	Doxifluridine	463.15	
3095-39-4	Benzoic acid, 3,5-dimethyl-4-[[1-oxo-2-(1-piperidinyl)propyl]amino]-, propyl ester, perchlorate (1:1)	442.15	
3095-73-6	Hexakis(bromomethyl)benzene	570.15	
30950-27-7	Perillartine	374.15	
30951-88-3	N,N-Diethyl-1-hexadecanamine	277.15	472.65
30957-66-5	1,2-Dihydro-4-[[(2-hydroxyphenyl)methylene]amino]-1,5-dimethyl-2-phenyl-3H-pyrazol-3-one	471.15	
3096-47-7	2-Chloro-9H-fluoren-9-one	398.65	
3096-50-2	N-(9-Oxo-9H-fluoren-2-yl)acetamide	500.65	
3096-52-4	2-Nitrofluorenone	522.15	
3096-57-9	2-Amino-9H-fluoren-9-one	433.15	
3096-63-7	N-Hydroxy-2,6-dimethylbenzenamine	371.65	
3096-70-6	4-Amino-3,5-dimethylphenol	436.15	
3096-71-7	4-Amino-2,5-dimethylphenol	514.15	
30965-26-5	Butanediol-dimethyl terephthalate copolymer	276.05	
30979-48-7	Isocarbamide	368.65	
3098-60-0	Morphocycline	424.15	
3098-65-5	Benzeneacetic acid, α-phenyl-, 3-(diethylamino)propyl ester, hydrochloride	405.65	
3099-30-7	Pyridine, 2-(chloromethyl)-6-methyl-, hydrochloride (1:1)	422.65	
3099-52-3	Nicametate		429.15
30992-29-1	N-[(1,1-Dimethylethoxy)carbonyl]-2-methylalanine	389.65	
3100-04-7	1-Methylcyclopropene	348.65	281.15
3100-36-5	8-Cyclohexadecen-1-one	295.15	466.15
31002-79-6	Triamcinolone benetonide	478.15	
31004-27-0	3-Chloro-2(5H)-furanone	299.15	
31005-02-4	7-Ethoxycoumarin	362.15	
3101-79-9	Benzenamine, compd. with 1,3,5-trinitrobenzene (1:1)	396.65	
3102-00-9	1-Butoxy-3-phenoxy-2-propanol		438.15
3102-87-2	2,3,5,6-Tetramethyl-1,4-phenylenediamine	422.65	
31024-56-3	N-[3-(Trimethoxysilyl)propyl]-1-butanamine		511.15
3103-38-6	Acetoacetylglycine	367.65	
31031-74-0	Phenamacide hydrochloride	427.15	
31036-80-3	Lofexidine	400.15	
3105-95-1	L-Pipecolic acid	541.15	
3105-97-3	Hycanthone	375.05	
31058-81-8	2-Chloro-N,N-dimethyl-4-pyrimidinamine	354.15	
31065-89-1	Ethanaminium, 2-(diphenylmethoxy)-N,N,N-trimethyl-, bromide (1:1)	467.15	
3107-04-8	Alloisoleucine	511.15	
3107-19-5	1,3-Dichloro-2-fluoro-5-nitrobenzene	317.15	
31072-56-7	1,4-Benzenedicarboxylic acid, polymer with [1,1′-biphenyl]-4,4′-diol and 4-hydroxybenzoic acid	613.15	
31077-70-0	3′′-Deamino-3′′-hydroxykanamycin B	485.65	
31078-36-1	N-Vanillyldecanamide	322.15	
31083-55-3	2-(3-Pyridinylmethylene)-1H-indene-1,3(2H)-dione	430.65	
31087-87-3	(3β,5β)-3-[(2,6-Dideoxy-3-O-methyl-α-L-arabino-hexopyranosyl)oxy]-14-hydroxycard-20(22)-enolide	481.15	
3109-35-1	N-[2-(2-Fluorobenzoyl)phenyl]-4-methylbenzenesulfonamide	402.9	
3109-63-5	Tetrabutylammonium hexafluorophosphate	517.65	
31098-20-1	Sulfopropyl acrylate potassium salt	563.15	
311-09-1	Benzenemethanaminium, N,N′-[(3,6-dioxo-1,4-cyclohexadiene-1,4-diyl)bis(imino-3,1-propanediyl)]bis[N,N-diethyl-, chloride (1:2)	466.15	
311-28-4	Tetrabutylammonium iodide	417.65	
311-45-5	Paraoxon	573.15	
311-89-7	Perfluorotributylamine	223.15	451.15
31100-24-0	4-Chloro-2-[[(4-methylphenyl)sulfonyl]amino]benzoic acid	478.15	
3111-89-5	O-Ethyl N-phenylcarbamothioate	510.65	
31112-62-6	Metrizamide	496.15	
3112-31-0	Pyrazole-3,5-dicarboxylic acid	560.15	
3112-67-2	Ethoxytitanium trichloride	354.65	458.65
3112-85-4	Methyl phenyl sulfone	359.15	
3112-87-6	1-Methyl-4-(2-propen-1-ylsulfonyl)benzene	323.65	
3112-88-7	[(Phenylmethyl)sulfonyl]benzene	419.15	
3112-90-1	[(Methylsulfonyl)methyl]benzene	400.15	
31121-93-4	Ibuprofen sodium	384.15	
31127-54-5	2,3,4,4′-Tetrahydroxybenzophenone	492.15	
31127-80-7	5-Acetamido-N,N′-bis(2,3-dihydroxypropyl)-2,4,6-triiodoisophthalamide	590.15	
3113-71-1	3-Methyl-4-nitrobenzoic acid	484.15	
3113-72-2	5-Methyl-2-nitrobenzoic acid	492.15	
31135-71-4	1,4-Benzenedicarboxylic acid, 1,4-dimethyl ester, polymer with 1,2-ethanediol and 1,2,3-propanetriol	519.15	
31139-87-4	Benzoic acid, 2-(4-hydroxybenzoyl)-, compd. with 3-(di-2-thienylmethylene)-1-methylpiperidine (1:1)	461.65	
3114-46-3	2-Propynenitrile, 3-bromo-	369.4	
3115-05-7	Iobenzamic acid	407.15	
3115-21-7	2-[1-(4-Pyridinyl)ethylidene]hydrazinecarbothioamide	503.15	
3115-28-4	2-Butylhexanoic acid		528.15
3115-39-7	Di-n-octyl phosphate	302.65	
3115-66-0	Phosphonium, tetrabutyl-, iodide (1:1)	368.65	
3115-68-2	Tetrabutylphosphonium bromide	373.15	
3116-76-5	Dicloxacillin	491.15	
31161-71-4	Benzyl myristate	293.65	
3117-02-0	2,3-Dimethoxy-2,5-cyclohexadiene-1,4-dione	339.65	
3117-38-2	α-Phenoxybenzeneacetic acid	381.9	
3118-97-6	Sudan Red	439.15	
31188-91-7	3-[[2-[2,4-Bis(1,1-dimethylpropyl)phenoxy]acetyl]amino]-N-[4,5-dihydro-5-oxo-1-(2,4,6-trichlorophenyl)-1H-pyrazol-3-yl]benzamide	411.65	
3119-02-6	4-Cyanobenzenesulfonamide	438.65	
3119-15-1	3-Amino-2,4,6-triiodobenzoic acid	464.15	
3119-93-5	3-Ethyl-2-methylbenzothiazolium iodide	466.65	
3119-94-6	Benzothiazolium, 3-ethyl-, iodide (1:1)	411.65	
31198-76-2	2-Methyl-5-(1-methylethenyl)-2-cyclohexen-1-one oxime	365.65	
312-21-0	4-[(Trifluoromethyl)sulfonyl]benzonitrile	362.65	
312-30-1	1,1′-Sulfonylbis[4-fluoro-3-nitrobenzene]	466.65	
312-31-2	1-Fluoro-4-(phenylsulfonyl)benzene	386.15	
312-45-8	Morpholinium, 2,2′-[1,1′-biphenyl]-4,4′-diylbis[2-hydroxy-4,4-dimethyl-, bromide (1:2)	453.15	
312-52-7	4-Fluoro-N-phenylbenzenesulfonamide	385.15	
312-73-2	2-(Trifluoromethyl)-1H-benzimidazole	482.65	
312-84-5	D-Serine	502.15	
312-90-3	11-Hydroxyprogesterone	495.15	
312-94-7	2-(Trifluoromethyl)benzoyl chloride		363.15
312-95-8	1-(Difluoromethyl)-2-(trifluoromethyl)benzene		414.15
312-96-9	2-(Trifluoromethyl)benzoyl fluoride		449.65
3120-74-9	3-Methyl-4-(methylthio)phenol	330.15	
3121-52-6	3-(Carboxymethyl)-2-methylbenzothiazolium bromide	497.65	
3121-70-8	α-Naphthyl butyrate	369.15	
31219-53-1	Arsine oxide	462.15	
3122-88-1	Eucalyptin	457.65	
31221-06-4	5-Diazo-2,4,6(1H,3H,5H)-pyrimidinetrione	549.65	
31222-02-3	4-Chloro-[1,2]benzoquinone	352.15	
3123-13-5	N-[1-(Hydroxymethyl)-2-(4-nitrophenyl)-2-oxoethyl]acetamide	439.65	
3123-89-5	N-[(7S)-10-Amino-5,6,7,9-tetrahydro-1,2,3-trimethoxy-9-oxobenzo[a]heptalen-7-yl]acetamide	528.15	
3123-93-1	2,2-Dimethyl-3-hexene		373.25
31230-17-8	3-Amino-5-methylpyrazole	367.15	
31232-26-5	9,10-Dihydro-10-(1-methyl-4-piperidinylidene)-9-anthracenol	500.65	
31235-50-4	N-(2,6-Dimethylphenyl)-4,5-dihydro-2-oxazolamine	483.65	
31236-94-9	2-Bromocyclododecanone	325.9	
3124-01-4	1,1,1,2,2,2-Hexaphenyldiplumbane	428.15	
3124-70-7	(17α)-21-Chloro-17-hydroxy-19-norpregn-4-en-20-yn-3-one	470.15	
31249-95-3	1,4,10-Trioxa-7,13-diazacyclopentadecane	363.15	
3125-77-7	1,3-Diisothiocyanatobenzene	328.15	
31251-41-9	8-Chloro-5,6-dihydro-11H-benzo[5,6]cyclohepta[1,2-b]pyridin-11-one	366.15	
31252-42-3	4-Benzylpiperidine	289.95	543.15
31252-85-4	p-Nitrophenyl iodoacetate	353.15	
31255-25-1	2,2′-[Oxybis(2,1-ethanediyloxy)]bis[acetyl chloride]	402.15	
31265-39-1	4,4′-[(5-Chloro-2-hydroxy-1,3-phenylene)bis(methylene)]bis[1,3-benzenediol]	448.15	
31268-79-8	1-(1,1-Dimethylethyl)-4-methoxy-2-methylbenzene	296.55	
3127-13-7	2,2-Dichloro-1,4-butanediol	353.65	
31271-07-5	γ-Mangostin	480.15	
31274-51-8	2,4,6-Tribiphenyl-4-yl-1,3,5-triazine	556.15	
3128-06-1	5-Oxohexanoic acid	286.65	547.65
3128-07-2	6-Oxoheptanoic acid	306.15	
3128-43-6	S-Phenyl 4-nitrobenzenecarbothioate	432.65	
31281-86-4	Adenosine, 8-bromo-, 2′,3′,5′-triacetate	461.65	
3129-43-9	Testosterone, valerate	383.15	
3129-91-7	Cyclohexanamine, N-cyclohexyl-, nitrite (1:1)	450.15	
3129-92-8	Cyclohexylammonium benzoate	450.15	
31293-07-9	1H-Dibenzo[de,h]quinoline-2,7-dione	521.15	
31297-82-2	2-(β-D-Glucopyranosyloxy)-1-hydroxy-9,10-anthracenedione	510.15	
313-04-2	Desmosterol	394.65	
313-05-3	Azacosterol	420.15	
313-06-4	Estradiol cypionate	424.65	
313-67-7	Aristolochic acid	551.15	
313-72-4	Octafluoronaphthalene	360.65	482.15
313-74-6	1,12-Dimethylbenz[a]anthracene	397.65	
313-80-4	Naphtho[2,1,8-def]quinoline	431.15	
3130-54-9	2,4-Dinitro-1H-pyrrole	425.15	
3130-75-4	4-Phthalimidobutyric acid	390.65	
3130-87-8	Asparagine	555.65	
3130-96-9	DL-Triiodothyronine	507.15	
31301-28-7	4-Methyl-1,10-phenanthroline	417.65	
3131-23-5	4-Hydroxyestrone	535.65	
3131-32-6	Antazoline mesylate	441.65	
3131-52-0	5,6-Dihydroxyindole	413.15	
3131-60-0	6-Azacytidine	488.15	
3132-64-7	2-(Bromomethyl)oxirane	233.15	407.75
3132-99-8	3-Bromobenzaldehyde	499.15	507.65
31323-44-1	1,1,1,3,3,5,5,5-Octachlorotrisiloxane	226.15	457.15
31329-57-4	Naftidrofuryl		463.15
31329-58-5	Veratroylzygadenine	552.15	
3133-01-5	1-Tricosanol	347.15	
31330-51-5	Ethyl 2-cyano-3-(2-thienyl)-2-propenoate	369.15	
31333-13-8	3-Nonyn-1-ol		376.4
31335-69-0	N-Hydroxy-N-phenylformamide	340.65	
3134-12-1	Phenobenzuron	392.15	
3134-66-5	S-Propyl hexahydro-1H-azepine-1-carbothioate	421.4	
3135-18-0	Di-n-Octadecyl(3,5-di-tert-butyl-4-hydroxybenzyl)phosphonate	329.15	
3135-54-4	6,11-Dihydro-6,11-dioxo-N-phenylbenzo[f]pyrido[1,2-a]indole-12-carboxamide	529.65	
31351-20-9	Benzeneethanaminium, N-dodecyl-β-hydroxy-N,N,α-trimethyl-, bromide (1:1)	376.65	
31362-12-6	2-(4′-Dimethylaminophenyl)-1,3-dithiolane	378.15	
31363-68-5	5,6-Dimethoxytryptamine	364.15	
31366-25-3	Tetrathiafulvalene	392.25	
31366-39-9	4-Amino-N-(4-nitrophenyl)benzamide	499.65	
3137-00-6	1,10-Di-2-propen-1-yl decanedioate		436.15
3137-73-3	(6α)-17-(Acetyloxy)-6-methylpregn-4-en-20-one	447.15	
3137-83-5	N-(3-Isothiocyanatophenyl)acetamide	429.65	
31375-20-9	N-[(4-Amino-2-methyl-5-pyrimidinyl)methyl]methanethioamide	462.65	
31378-03-7	2-[(4-Methylphenyl)sulfonyl]-1-phenylethanone	383.15	
3138-86-1	2,3-Bis(bromomethyl)quinoxaline	423.15	
31383-81-0	1,1′-Dimethyl 3,3′-methylenebis[6-aminobenzoate]	417.65	
31387-97-0	Butyl D-glucopyranoside	339.65	
3139-42-2	2-(Phenylmethylene)benzo[b]thiophen-3(2H)-one	405.4	
3139-55-7	α-Methyl-β-phenylbenzeneethanamine	547.15	
31394-54-4	Isoheptane	298.65	
31397-09-8	2-(2-Furanylmethylene)-N-phenylhydrazinecarbothioamide	459.65	
314-03-4	Pimethixene	394.15	
314-35-2	Etamiphyllin	348.15	
314-40-9	Bromacil	431.9	
314-42-1	Isocil	431.65	
3140-73-6	2-Chloro-4,6-dimethoxy-1,3,5-triazine	348.65	
3140-93-0	2,3-Dibromothiophene	255.65	491.65
31407-74-6	Carbamimidic acid, ethyl ester, hydrochloride (1:1)	373.15	
3141-12-6	Triethoxyarsine		438.65
3141-24-0	2,3,5-Tribromothiophene	302.15	533.15
3141-25-1	2,3,4-Tribromothiophene	317.65	
3141-26-2	3,4-Dibromothiophene	277.65	494.65
3141-27-3	2,5-Dibromothiophene	267.15	483.45
3142-05-0	Benzeneacetic acid, α-(2-methylbutoxy)-α-phenyl-, 2-(dimethylamino)ethyl ester, hydrochloride	420.15	
3142-58-3	3,3-Dimethyl-2,4-pentanedione	292.15	446.15
3142-66-3	3-Hydroxy-2-pentanone	406.65	
3142-72-1	2-Methyl-2-pentenoic acid	294.15	
31430-15-6	Flubendazole	533.15	
31431-19-3	4-Amino-3-nitrobenzophenone	413.15	
31431-39-7	Mebendazole	561.65	
31431-43-3	Cyclobendazole	523.65	
31432-65-2	2-[4-(5-Nitro-2-furanyl)-1,3-butadien-1-yl]-4-quinolinecarboxylic acid	544.65	
31438-22-9	1-Nitro-9H-carbazole	457.15	
3144-04-5	Butanesulfonamide	321.4	
3144-09-0	Methanesulfonamide	361.15	
3144-16-9	Camphorsulfonic acid	468.15	
3144-54-5	4-Caproylresorcinol	330.15	616.15
3144-74-9	(Chloromethyl)dimethylsilane		354.15
3145-86-6	1-(Iodomethyl)-4-nitrobenzene	397.15	
31454-48-5	Tetrabromocyclooctane	400.65	
31456-98-1	Methyl 2-hydroxy-3-(2-propen-1-yl)benzoate	406.15	
3146-39-2	rel-(1R,2S,4R,5S)-3-Oxatricyclo[3.2.1.02,4]octane	396.15	429.65
3146-40-5	L-Alanylglycylglycine	493.15	
3146-50-7	D-glycero-D-gulo-Heptose	424.65	
3146-66-5	5-Butyl-5-(2-propen-1-yl)-2,4,6(1H,3H,5H)-pyrimidinetrione	383.15	
31462-59-6	4-Pyrimidinecarboxylic acid	511.15	
31465-25-5	1-Butanesulfonic acid, 4-hydroxy-, sodium salt (1:1)	480.65	
31465-36-8	4-(4-Methoxyphenoxy)benzenamine	352.15	
31468-33-4	Dihydro-3-methyl-2H-pyran-2,6(3H)-dione		546.65
3147-39-5	Methyl 2,4,6-trihydroxybenzoate	444.15	
3147-45-3	2,4-Dihydroxybenzamide	494.65	
3147-50-0	2,6-Dihydroxybenzamide	491.15	
3147-53-3	5-(Phenylazo)salicylic acid	493.65	
3147-55-5	3,5-Dibromosalicylic acid	501.15	
3147-62-4	3,5-Dihydroxybenzamide	552.15	
3147-75-9	2-(2-Hydroxy-5-tert-octylphenyl)benzotriazole	377.75	
3147-76-0	2-(2′-Hydroxy-5′-tert-butylphenyl)benzotriazole	366.15	
31473-53-7	Maleic anhydride-1-tetradecene copolymer	401.65	
31477-60-8	Ormeloxifene	373.15	
3148-73-0	Acetic acid, 2-acetylhydrazide	411.65	