CAS	name	Tm	Tb
103-70-8	Formanilide	320.2	544.15
103-71-9	Phenyl isocyanate	243.15	436.15
103-72-0	Phenyl isothiocyanate	252.15	494.15
103-73-1	Phenetole	243.15	445.15
103-74-2	2-Pyridineethanol	265.35	
103-75-3	2-Ethoxy-3,4-dihydro-2H-pyran	427.15	416.15
103-76-4	1-Piperazineethanol	420.65	519.15
103-78-6	1-Cyclohexyl-2-propanone	389.15	472.15
103-79-7	Phenylacetone	258.15	489.65
103-80-0	Phenylacetyl chloride	538.15	443.15
103-81-1	Benzeneacetamide	430.15	534.65
103-82-2	Phenylacetic acid	349.65	538.65
103-83-3	N,N-Dimethylbenzylamine	198.15	453.15
103-84-4	Acetanilide	387.45	577.15
103-85-5	Phenylthiourea	427.15	
103-86-6	Hydroxyamphetamine	398.65	
103-87-7	4-[(Dimethylamino)methyl]phenol	385.15	
103-88-8	Bromoacetanilide	441.15	
103-89-9	p-Acetotoluidide	425.15	580.15
103-90-2	Acetaminophen	442.9	773.15
103-93-5	4-Methylphenyl 2-methylpropanoate		510.15
103-94-6	2-[(4-Nitrophenyl)amino]-2-oxoacetic acid	483.15	
103-96-8	N,N′-Bis(1-methylheptyl)-p-phenylenediamine		463.15
103-97-9	Phenocoll	373.65	
103-98-0	N-Lauroyl-4-aminophenol	363.15	
103-99-1	N-(4-Hydroxyphenyl)octadecanamide	406.95	512.65
1030-02-0	3,3′-[(Phenylmethylene)bis(thio)]bis[propanoic acid]	359.65	
10300-69-3	Ethanimidamide, 2-chloro-, monohydrochloride	378.15	
10304-16-2	3-Thietanol		330.15
10304-39-9	8-(p-Toluenesulfonylamino)quinoline	427.15	
10305-39-2	1-O-Heptylglycerol	295.65	
10305-41-6	3-(Cyclohexyloxy)-1,2-propanediol	346.65	
103079-11-4	4-[Bis(phenylmethyl)amino]-2-methylbenzaldehyde 2,2-diphenylhydrazone	422.15	
10308-82-4	Aminoguanidine nitrate	415.65	
10309-65-6	Bicyclo[4.1.0]heptane-3,4-diol, 3,7,7-trimethyl-, 4-acetate, (1S,3R,4R,6R)-	345.65	
10309-97-4	1,2-Benzenediol, 1-(N-methylcarbamate)	399.9	
1031-07-8	Endosulfan sulfate	454.65	
1031-36-3	4-[(1-Methylethyl)amino]-1-(phenylmethyl)-4-piperidinecarboxamide	392.25	
1031-37-4	1-(Phenylmethyl)-4-(propylamino)-4-piperidinecarboxamide	402.65	
1031-47-6	Triamiphos	441.15	
1031-93-2	Diphenyl-p-tolylphosphine	341.65	
10310-21-1	2-Amino-6-chloropurine	548.15	
10310-32-4	Tribenoside		548.15
10311-08-7	Dimethylphenylphosphine oxide	373.15	577.15
10311-84-9	Dialifos	341.15	
103112-35-2	Fenchlorazole-ethyl	383.15	
10312-45-5	Testosterone caproate	329.15	
10312-83-1	Methoxyacetaldehyde		365.15
10315-03-4	4-Acetyl-4-phenylpiperidine hydrochloride	512.65	
10315-98-7	4-(2-Methylpropyl)morpholine		454.15
10316-66-2	2-Hydroxy-2-cyclohexen-1-one	303.15	
10318-26-0	Mitolactol	460.15	
10318-38-4	2-Methyl-3,3′-spirobi[3H-naphtho[2,1-b]pyran]	364.15	
10319-14-9	Disperse Yellow 64	516.15	
1032-65-1	2′-Deoxycytidine-5′-monophosphate	456.65	
10320-42-0	2-Chloro-5-nitropyrimidine	383.65	
10320-97-5	N-1-Naphthalenyl-1,2,3,4-thiatriazol-5-amine	409.15	
103201-78-1	(4S)-4-Cyclohexyl-L-proline	523.65	
10321-12-7	Propizepine	395.15	
10321-71-8	4-Methyl-2-pentenoic acid	308.15	490.15
103213-32-7	N-[(9H-Fluoren-9-ylmethoxy)carbonyl]-S-(triphenylmethyl)-L-cysteine	445.65	
10323-20-3	D-Arabinose	432.15	
10324-58-0	1-Pentylpiperidine		471.35
10325-94-7	Cadmium nitrate	623.15	
103255-66-9	Pazinaclone	511.65	
103255-67-0	2-(7-Chloro-1,8-naphthyridin-2-yl)-2,3-dihydro-3-[2-[4-(hydroxyimino)-1-piperidinyl]-2-oxoethyl]-1H-isoindol-1-one	519.15	
10326-21-3	Magnesium chlorate	308.15	
10326-27-9	Barium chloride, dihydrate	386.15	
10326-41-7	D-Lactic acid	325.95	
10327-87-4	3,5-Dichloro-1H-1,2,4-triazole	421.15	
10328-92-4	N-Methylisatoic anhydride	450.15	
1033-93-8	3-Piperidinecarboxylic acid, 4-oxo-1-(2-phenylethyl)-, ethyl ester, hydrochloride (1:1)	439.15	
1033-99-4	N,N-Dimethyl-2,2-diphenoxyacetamide	357.65	
103300-77-2	(4S)-Hexahydro-1-methyl-2,6-dioxo-4-pyrimidinecarbonyl-L-histidyl-L-proline	507.65	
103300-91-0	N2-[(1S)-1-(Ethoxycarbonyl)-3-phenylpropyl]-N6-(2,2,2-trifluoroacetyl)-L-lysyl-L-proline	351.15	
103312-62-5	2-[[(4-Chloro-3-methyl-2-pyridinyl)methyl]thio]-1H-benzimidazole	430.15	
10332-17-9	(+)-L-Methionine methyl ester	420.15	
10332-31-7	Dodecanoic acid, 3-hydroxy-2,2-bis(hydroxymethyl)propyl ester	369.35	
10333-14-9	3,4-Dihydro-6-methyl-2(1H)-pyridinone	508.15	
10333-68-3	2-(1H-Pyrrol-1-yl)benzoic acid	376.15	
10334-26-6	(-)-Camphorquinone	472.15	
10335-68-9	N-Hydroxydodecanamide	357.15	
10335-69-0	(9Z)-N-Hydroxy-9-octadecenamide	334.15	
10335-79-2	N-Hydroxy-2-naphthalenecarboxamide	436.15	
103361-09-7	Flumioxazin	475.65	
103379-03-9	Monatepil maleate	422.65	
10338-51-9	Salidroside	432.65	
10338-96-2	Bromodichloromethylsilane		359.65
1034-01-1	Octyl gallate	375.65	
1034-49-7	Phosphonium, (bromomethyl)triphenyl-, bromide (1:1)	483.15	
10340-88-2	1,2-Dimethoxyethene		375.15
10341-03-4	2-Butenedioic acid (2E)-, 1,4-ditetradecyl ester	326.9	
10342-06-0	L-Serine, N-[(1,1-dimethylethoxy)carbonyl]-, compd. with N-cyclohexylcyclohexanamine (1:1)	416.15	
10342-59-3	1-Nitro-4-propylbenzene	259.15	
10342-60-6	1-(2-Methylpropyl)-4-nitrobenzene	239.15	
10342-83-3	4′-Bromopropiophenone	321.15	
10342-85-5	4′-Piperidinoacetophenone	362.15	
10342-97-9	N-Methyl-N-(1-methylethyl)-2-propanamine		383.65
103429-90-9	1-Butanol, 3-methoxy-3-methyl-, 1-acetate		461.15
10343-99-4	rel-(4aR,8aR)-Decahydroquinoline	233.15	479.15
10344-69-1	Propanediimidic acid, 1,3-diethyl ester, hydrochloride (1:2)	407.15	
10344-94-2	p-Nitrophenyl β-D-glucuronide	411.15	
10345-79-6	2-Chloro-N,N-diethylbenzamide	312.65	
10345-87-6	3-Phenyl-2-cyclohexen-1-one	337.65	
10347-81-6	Maprotiline hydrochloride	504.15	
10347-88-3	3-(1,1-Dimethylethyl)hexanedioic acid	390.15	
103475-41-8	Tepoxalin	398.65	
10349-57-2	6-Quinolinecarboxylic acid	564.15	
1035-52-5	N,N-Dicyclohexylbenzamide	350.15	
1035-69-4	Androsta-4,9(11)-diene-3,17-dione	476.15	
1035-77-4	Estradiol 3-methyl ether	393.65	
10350-69-3	3-(5-Methyl-1,2,4-oxadiazol-3-yl)pyridine	382.15	
10351-06-1	2,3,5,6-Tetrachloro-4-pyridinethiol	437.65	
10351-19-6	2-(4-Pyridinylthio)acetic acid	543.15	
10351-88-9	Phyllanthin	440.15	
10353-53-4	2-(3-Buten-1-yl)oxirane		393.15
10353-99-8	5-Nitroacenaphthylene	386.9	
10354-00-4	5H-Dibenzo[a,d]cyclohepten-5-ol	371.15	
10354-48-0	N-(Phenylmethyl)-2-furancarboxamide	384.4	
10355-53-0	4-Nitro-p-terphenyl	484.15	
10356-76-0	5-Fluoro-2′-deoxycytidine	436.15	
10357-27-4	p-Nitrophenyl α-D-mannopyranoside	447.15	
10357-99-0	2-[[4-[3-(4-Chlorophenyl)-4,5-dihydro-1H-pyrazol-1-yl]phenyl]sulfonyl]-N,N-dimethylethanamine	419.65	
103577-40-8	Lansoprazole sulfide	386.65	
103577-45-3	Lansoprazole	453.15	
10359-09-8	2-(4-Chlorophenyl)-1,3-dithiane	364.15	
103597-45-1	2,2′-Methylenebis[6-(2H-benzotriazol-2-yl)-4-(1,1,3,3-tetramethylbutyl)phenol]	473.15	
10361-03-2	Sodium phosphate (NaPO3)	883.15	
10361-11-2	Nonyl gallate	369.65	
10361-37-2	Barium chloride	1235.15	1833.15
10361-44-1	Bismuth nitrate	1118.15	
10361-79-2	Praseodymium chloride	1058.15	
10361-82-7	Samarium trichloride	950.15	
10361-92-9	Yttrium trichloride	633.15	1761.15
103616-17-7	(OC-6-21)-Tris[3-(hydroxy-κO)-2-methyl-4H-pyran-4-onato-κO4]aluminum	513.15	
103628-46-2	Sumatriptan	443.15	
103628-48-4	Sumatriptan succinate	438.65	
10364-68-8	5-Ethyl-3-phenyl-1,2,4-oxadiazole		377.15
10364-94-0	1H-Imidazol-1-ylphenylmethanone	292.65	
10365-94-3	1,3,5-Benzenetricarbonitrile	535.15	
10365-98-7	(3-Methoxyphenyl)boronic acid	433.15	
10366-35-5	2-Chloronicotinamide	436.65	
10368-25-9	N,N′-Dibenzyl-p-phenylenediamine	375.15	
10371-42-3	S-(4-Methylphenyl) benzenecarbothioate	348.65	
10371-86-5	9-Methoxy-5,11-dimethyl-6H-pyrido[4,3-b]carbazole	555.65	
10372-98-2	1,1,1,2,3,3,3-Heptafluoro-2-[(1,2,2-trifluoroethenyl)oxy]propane		308.15
10373-78-1	Camphorquinone	472.15	
10373-81-6	3-Hydroxycamphor	478.65	
103749-26-4	4H-1,2,4-Triazolium, 5-[2-[4-(dimethylamino)phenyl]diazenyl]-1,4-dimethyl-, tetrafluoroborate(1-) (1:1)	470.65	
10375-08-3	N-(3-Aminopropyl)dodecanamide	372.65	
10376-59-7	3-(2-Hydroxyethyl)-2-methyl-3,4-dihydro-4-quinazolinone	407.15	
103765-01-1	UCB-L 060	388.15	
10377-48-7	Lithium sulfate	808.15	
10377-51-2	Lithium iodide	742.15	
10377-52-3	Trilithium phosphate	1479.15	
10377-60-3	Magnesium nitrate	573.65	
10377-66-9	Manganese nitrate	433.15	
10377-81-8	Monoethanolamine borate	369.65	
103788-60-9	5-[(4-Hydroxyphenyl)methylene]-2,4-thiazolidinedione	575.75	
10379-11-0	7-Chloro-5-(1-cyclohexen-1-yl)-1,3-dihydro-2H-1,4-benzodiazepin-2-one	480.65	
10379-14-3	Tetrazepam	417.15	
10379-72-3	Liquiritic acid	603.15	
1038-28-4	Gona-2,5(10)-dien-17-ol, 13-ethyl-3-methoxy-, (17β)-(±)-	392.15	
1038-66-0	4,4′-Diaminooctafluorobiphenyl	446.65	
1038-67-1	1,8-Diphenylnaphthalene	422.65	
1038-95-5	Tri-p-tolylphosphine	419.15	
10381-75-6	8-Bromo-3,9-dihydro-1,3-dimethyl-1H-purine-2,6-dione	581.15	
10387-13-0	9,10-Bis(chloromethyl)anthracene	509.65	
10387-40-3	Potassium thioacetate	447.65	
103878-83-7	Lazabemide hydrochloride	467.15	
10388-19-9	3-Iodobenzamide	458.65	
103884-98-6	2-Amino-9-(2-deoxy-2-fluoro-β-D-arabinofuranosyl)-1,9-dihydro-6H-purin-6-one	550.15	
10389-51-2	4-(4-Nitrophenyl)morpholine	422.65	
10389-65-8	N,N′-Bis(tert-butoxycarbonyl)-L-cystine	416.15	
103890-78-4	Lacidipine	447.65	
1039-17-4	9-Dehydromethyltestosterone	444.15	
103909-75-7	Maxacalcitol	395.15	
10391-47-6	(2β,4α,15α)-2,15-Dihydroxy-19-norkaur-16-en-18-oic acid	453.15	
103913-16-2	Oxetanocin	470.15	
103922-33-4	Pibutidine	500.65	
103926-82-5	Benzoic acid, 4-[(4,5-dihydro-1H-imidazol-2-yl)amino]-, 6-(aminoiminomethyl)-2-naphthalenyl ester, methanesulfonate (1:2)	516.15	
10394-96-4	1,1-Diphenyl-2,2-dicyanoethylene	411.15	
10395-46-7	(1S,3S,4S,6R)-3,7,7-Trimethylbicyclo[4.1.0]heptane-3,4-diol	362.15	
10396-10-8	p-Toluenesulfonylsemicarbazide	509.15	
10396-80-2	2,6-Di(tert-butyl)-4-hydroxy-4-methyl-2,5-cyclohexadien-1-one	384.15	
10397-30-5	4-Methyl-3-nitrobenzoyl chloride	284.15	
10397-58-7	4-Methoxy-3-nitrobenzamide	390.15	
10397-59-8	N,N-Dimethyl-2-phenoxyacetamide	318.15	
10397-75-8	Iocarmic acid	575.15	
10399-13-0	Methyl α-cyclohexyl-α-hydroxybenzeneacetate	313.15	
104-01-8	(4-Methoxyphenyl)acetic acid	360.15	411.15
104-03-0	(4-Nitrophenyl)acetic acid	427.15	
104-04-1	N-(4-Nitrophenyl)acetamide	489.15	373.15
104-06-3	4′-Formylacetanilide thiosemicarbazone	498.15	
104-07-4	Octadecanoic acid, cyclohexyl ester	317.15	
104-09-6	p-Tolylacetaldehyde	313.15	494.65
104-10-9	2-(4-Aminophenyl)ethanol	382.15	
104-12-1	4-Chlorophenyl isocyanate	303.65	
104-13-2	4-Butylaniline	354.15	534.15
104-14-3	Octopamine	430.65	
104-15-4	p-Toluenesulfonic acid	379.65	413.15
104-16-5	1-(3-Chloropropyl)-4-methylpiperazine	402.15	
104-18-7	2-[(4-Aminophenyl)thio]acetic acid	469.65	
104-20-1	4-(4-Methoxyphenyl)-2-butanone	282.15	
104-21-2	4-Methoxybenzyl acetate	357.15	543.15
104-22-3	4-[(Phenylmethyl)amino]benzenesulfonamide	444.15	
104-24-5	4-Phenylazobenzoyl chloride	368.15	
104-27-8	1-(4-Methoxyphenyl)-1-penten-3-one	334.15	
104-28-9	Cinoxate	248.15	458.65
104-29-0	Chlorphenesin	351.15	
104-36-9	1,4-Dibutoxybenzene	318.65	
104-38-1	Hydroquinone bis(2-hydroxyethyl) ether	369.65	
104-40-5	4-Nonylphenol	315.15	453.65
104-41-6	1-Dodecyl-4-methylbenzene	278.15	
104-42-7	4-Dodecylaniline	313.65	493.65
104-43-8	p-Dodecylphenol	336.9	
104-45-0	4-Propylanisole	318.65	484.65
104-46-1	Anethole	294.45	507.15
104-47-2	(4-Methoxyphenyl)acetonitrile		559.65
104-49-4	p-Phenylene diisocyanate	366.65	
104-50-7	γ-Octalactone	364.15	
104-51-8	Butylbenzene	185.25	456.45
104-52-9	1-Chloro-3-phenylpropane		492.65
104-53-0	Benzenepropanal	320.15	497.15
104-54-1	Cinnamyl alcohol	306.15	523.15
104-55-2	Cinnamaldehyde	265.65	519.15
104-57-4	Benzyl formate		476.15
104-60-9	Phenylmercuric oleate	322.15	
104-61-0	(±)-γ-Nonalactone		516.15
104-63-2	Benzylethanolamine	367.65	427.65
104-66-5	1,2-Diphenoxyethane	371.15	455.15
104-67-6	γ-Undecalactone		559.15
104-71-2	N1,N2-Bis(phenylmethylene)-1,2-ethanediamine	508.15	
104-72-3	Decylbenzene	258.75	571.15
104-73-4	Dodecylpyridinium bromide	362.65	
104-74-5	Dodecylpyridinium chloride	344.15	433.15
104-75-6	2-Ethylhexylamine	197.15	442.15
104-76-7	2-Ethylhexanol	197.15	457.49
104-77-8	3-Chloro-N,N-diethyl-1-propanamine		355.15
104-78-9	N,N-Diethyl-1,3-propanediamine		441.65
104-79-0	N,N-Diethyl-N′-methylethylenediamine		430.65
104-80-3	2,5-Bis[hydroxymethyl]tetrahydrofuran		538.15
104-81-4	4-Methylbenzyl bromide	311.15	
104-82-5	4-Methylbenzyl chloride		474.15
104-83-6	4-Chlorobenzyl chloride	304.15	496.15
104-84-7	4-Methylbenzylamine	285.65	468.15
104-85-8	4-Methylbenzonitrile	302.65	490.15
104-86-9	4-Chlorobenzylamine	550.65	
104-87-0	4-Methylbenzaldehyde	267.15	477.15
104-88-1	4-Chlorobenzaldehyde	320.65	486.65
104-89-2	5-Ethyl-2-methylpiperidine		433.15
104-90-5	5-Ethyl-2-methylpyridine	202.25	
104-91-6	4-Nitrosophenol	417.15	
104-92-7	4-Bromoanisole	286.65	488.15
104-93-8	4-Methylanisole	241.15	448.65
104-94-9	4-Methoxyaniline	330.35	516.15
104-95-0	4-Bromothioanisole	305.15	504.15
104-96-1	4-(Methylthio)aniline	430.15	545.65
104-98-3	Urocanic acid	498.15	
10400-18-7	4-Chloro-α-(1-methylethyl)benzenemethanol	397.15	
10400-19-8	Nicotinoyl chloride	288.65	
10400-20-1	3-Pyridinecarboxylic acid, 1-(4-chlorophenyl)-2-methylpropyl ester, hydrochloride (1:1)	398.65	
10403-47-1	2-Bromo-5-nitroaniline	413.15	
104040-78-0	Flazasulfuron	441.15	
10405-02-4	Trospium chloride	529.15	
104056-62-4	6,6′-Tetrathiobis[N2,N2,N4-triethyl-1,3,5-triazine-2,4-diamine]	315.65	
10406-25-4	4-Cyanobenzylamine	292.15	
104075-48-1	1H-Imidazole, 5-(2-ethyl-2,3-dihydro-1H-inden-2-yl)-, hydrochloride (1:1)	492.95	
1041-00-5	Fluorescent Brightener 135	456.65	
1041-01-6	Diiodothyronine	528.15	
1041-90-3	Morphinan-3,6-diol, 7,8-didehydro-4,5-epoxy-17-(2-propen-1-yl)-, hydrobromide (1:1), (5α,6α)-	399.15	
104104-50-9	Gabazine	473.15	
10414-75-2	4-[(4-Aminophenyl)methyl]-2-chlorobenzenamine	355.65	
104142-93-0	Norfloxacin hydrochloride	493.15	
10415-87-9	α-Ethyl-α-methylbenzenepropanol	276.15	
10416-59-8	N,O-Bis(trimethylsilyl)acetamide	249.15	
10416-67-8	2-(Trimethylsilyl)-1H-isoindole-1,3(2H)-dione	339.65	
10418-03-8	Stanozolol	509.05	
104196-23-8	(2S,3S)-3-Phenyl-2-oxiranemethanol	327.05	
1042-35-9	4-(Cyclohexylamino)-1-(phenylmethyl)-4-piperidinecarboxamide	412.35	
1042-84-8	2-(1-Methylnaphtho[1,2-d]thiazol-2(1H)-ylidene)-1-phenylethanone	495.15	
1042-85-9	1-Cyclohexyl-5-ethyl-3-phenyl-2,4,6(1H,3H,5H)-pyrimidinetrione	400.65	
10420-33-4	1,4-Dimethyl 2-acetylbutanedioate	305.4	357.15
10420-90-3	1,3-Hexadien-5-yne	192.15	356.65
104206-65-7	Nitisinone	414.15	
104206-82-8	Mesotrione	431.15	
10421-48-4	Ferric nitrate	320.15	
10421-85-9	2-Chloromandelic acid	418.65	
104222-34-6	5-Chloro-4-fluoro-2-nitrobenzenamine	422.9	
104227-87-4	Famciclovir	376.15	
10423-37-7	5H-Dibenzo[a,d]cycloheptene-5-carboxamide	491.65	
10424-65-4	Tetramethylammonium hydroxide pentahydrate	344.15	
10424-92-7	4-Nitrobenzaldehyde 2,2-dimethylhydrazone	384.15	
10425-11-3	3,4-Dihydroxybenzophenone	407.15	
104273-73-6	4-(Cyclopropylcarbonyl)-3,5-dioxocyclohexanecarboxylic acid	417.55	493.15
10428-19-0	1,1,3,3-Tetrabutyl-1,3-dichlorodistannoxane	386.15	
10428-63-4	2-(Decylthio)acetic acid	321.15	
10429-07-9	17-Oxoandrostan-3β-yl tosylate	437.65	
10429-82-0	Benzenemethanamine, N,N-bis(2-chloroethyl)-, hydrochloride (1:1)	422.15	
104294-61-3	Benzenemethanol, α-(1-aminoethyl)-α-methyl-, hydrochloride (1:1)	517.65	
1043-10-3	(11β,17β)-11,17-Dihydroxy-17-methylandrost-4-en-3-one	483.15	
1043-21-6	Pirenoxine	520.15	
1043-50-1	1,1′-Thiobis[2,3,4,5,6-pentafluorobenzene]	360.15	
10430-97-4	3-(Decyloxy)-1,2-propanediol	350.4	
10432-39-0	2-(1-Phenylpropylidene)propanedinitrile	341.15	
10433-52-0	O-(Phenylmethyl)-D-serine	485.65	
104344-23-2	Bisoprolol fumarate	373.15	
10435-55-9	4-Ethoxy-2-hydroxybenzoic acid	422.15	
10435-67-3	2-Phenylindeno[2,1-b]pyran	470.65	
104372-31-8	4H-4a,7-Methanooxazirino[3,2-i][2,1]benzisothiazole, tetrahydro-9,9-dimethyl-, 3,3-dioxide, (4aR,7S,8aR)-	437.15	
10438-94-5	Sensiva	312.65	
104383-17-7	Sabeluzole	374.85	
1044-49-1	2,5-Bis(4-nitrophenyl)-1,3,4-oxadiazole	575.15	
10440-91-2	2-[(1-Nitro-2-naphthalenyl)oxy]acetic acid	464.65	
10441-41-5	1-(6-Hydroxy-2-naphthalenyl)ethanone	444.15	
10441-57-3	1-Methyl-2-pyrrolidinethione		417.65
10442-39-4	Tetrabutylammonium cyanide	461.15	
10443-59-1	2-Butyl-2-imidazoline	308.15	
10443-65-9	2-Bromoacrylic acid	345.15	
10443-70-6	MCPB ethyl	272.15	439.65
10444-89-0	5-(Trifluoromethyl)-1,3,4-thiadiazol-2-amine	508.15	
10447-38-8	1-Azabicyclo[2.2.2]octane-3-methanol, α,α-diphenyl-, hydrochloride (1:1)	560.65	
10447-39-9	Quifenadine	512.15	
10448-26-7	Hexyl decanoate		583.15
10448-84-7	Nitromifene	392.15	
10448-96-1	(7α)-3-Hydroxy-7-methylestra-1,3,5(10)-trien-17-one	505.15	
1045-29-0	(1R,3aS,3bR,5aS,7R,8aS,8bS,10aS)-1,7-Diethynylhexadecahydro-8a,10a-dimethyldicyclopenta[a,f]naphthalene-1,7-diol	442.65	
1045-51-8	4-[(4-Chlorophenyl)amino]-1-(phenylmethyl)-4-piperidinecarboxamide	445.65	
1045-69-8	Testosterone, acetate	413.65	
1045-82-5	1-Propanone, 1-(2-chloro-10H-phenothiazin-10-yl)-3-(diethylamino)-, hydrochloride (1:1)	454.15	
10450-69-8	Oleyltrimethylammonium chloride	504.15	
10453-86-8	Resmethrin	318.65	447.15
10453-89-1	Chrysanthemic acid	323.65	
10457-14-4	2,4-Bis(trimethylsiloxy)pyrimidine	305.15	
10457-90-6	Bromperidol	428.15	
10458-14-7	p-Menthan-3-one	298.17	483.15
104594-70-9	Caffeic acid phenethyl ester	427.15	
1046-28-2	17-Methylpregn-4-ene-3,20-dione	402.65	
1046-56-6	3-(2-Pyridyl)-5,6-diphenyl-1,2,4-triazine	462.65	
104604-66-2	10-Chloro-1-[[(2R)-2-(hydroxymethyl)-1-pyrrolidinyl]carbonyl]-3-phenyl-4H-benzo[a]quinolizin-4-one	452.65	
104606-13-5	N-[1-[4-(4-Fluorophenoxy)butyl]-4-piperidinyl]-N-methyl-2-benzothiazolamine	344.15	
10461-98-0	2-cyclohexylidene-2-phenylacetonitrile	443.15	
104612-35-3	(S)-N-Methylhydroxysuccinimide	361.15	
104615-18-1	9-Chloro-2-(2-furanyl)[1,2,4]triazolo[1,5-c]quinazolin-5-amine	551.65	
10463-20-4	4-Hydroxy-3-nitrophenylacetic acid	419.65	
104632-25-9	Pramipexole dihydrochloride	570.15	
10465-78-8	N,N,N′,N′-Tetramethylazodicarboxamide	384.65	
104653-34-1	Difethialone	507.65	
10466-61-2	Leucinamide hydrochloride	499.65	
10466-65-6	Potassium perrhenate	825.65	1643.15
10468-90-3	3-Iodo-L-thyronine	479.15	
10469-09-7	Tetrachloropicolinic acid	444.15	
10469-27-9	α,α-Bis(2-hydroxyethyl)benzeneacetonitrile	370.15	
10469-70-2	Hydrazinecarboxamide, 2-(2-amino-1-methylethylidene)-, hydrochloride (1:1)	482.15	
10469-81-5	1-Phenoxy-2-(3-phenoxyphenoxy)benzene	347.05	
10469-83-7	1-Phenoxy-3-(4-phenoxyphenoxy)benzene	321.15	
1047-16-1	Quinacridone	673.15	
1047-65-0	Piperazine, 1-[2-(2,5-dimethoxyphenyl)ethyl]-4-(2-pyridinyl)-, hydrochloride (1:2)	483.15	
10471-24-6	Bicyclo[2.2.1]hept-5-ene-2-methanol, 2-acetate		480.15
10471-28-0	Dodecanedioic acid, 1,12-diethyl ester	289.15	
10471-29-1	3,4-Dioxo-2,5-diphenylhexanedinitrile	405.15	
10472-24-9	Methyl 2-oxocyclopentanecarboxylate	397.15	
10473-13-9	2,3-Dimethyl-3-buten-2-ol		391.65
10473-14-0	3-Methyl-3-buten-2-ol		387.15
10474-32-5	2,3-Dihydro-2-methyl-2-phenyl-1H-inden-1-one	383.65	
10475-46-4	2-Naphthyl methacrylate	339.15	
104757-53-1	Barnidipine hydrochloride	500.15	
10476-81-0	Strontium bromide (SrBr2)	924.15	
10476-85-4	Strontium chloride	1147.15	
10476-86-5	Strontium iodide	675.15	
10476-95-6	2-Propene-1,1-diol, 2-methyl-, 1,1-diacetate		464.15
10477-72-2	4-[Bis(2-chloroethyl)amino]benzeneacetic acid	378.15	
10479-25-1	N-Ethyl-N-(phenylmethyl)benzenemethanamine	366.65	
10479-30-8	N,N-Bis(phenylmethyl)acetamide	401.65	
10479-42-2	rel-(1R,6R)-6-Methyl-3-cyclohexene-1-carboxylic acid	337.65	
10479-68-2	rel-(3aR,7aS)-Octahydro-1H-isoindol-1-one	373.15	
104797-47-9	S-2-Benzothiazolyl (αZ)-α-[(acetyloxy)imino]-2-amino-4-thiazoleethanethioate	417.15	
1048-05-1	Tetraphenylgermane	505.65	
1048-08-4	1,1′,1′′,1′′′-Silanetetrayltetrakis[benzene]	509.65	
104802-58-6	1,5-Pentanedione, 2,4-bis(hexahydro-1H-azepin-1-yl)-1,5-diphenyl-, dihydrochloride	424.65	
10482-56-1	(-)-α-Terpineol	306.15	
10484-03-4	N-(2,4-Dinitrophenyl)leucine	399.15	
10484-23-8	5,6,7,8-Tetrahydro-1-naphthaleneacetaldehyde		410.65
10484-35-2	Pentyl myristate		430.15
10484-48-7	Benzoyl succinyl peroxide	370.15	
10484-56-7	2-Butoxynaphthalene	305.15	
10486-08-5	Benzenethiol, 4-methyl-, sodium salt (1:1)	323.65	