CAS	name	Tm	Tb
125-27-9	Morphinanium, 7,8-didehydro-4,5-epoxy-6-hydroxy-3-methoxy-17,17-dimethyl-, bromide (1:1), (5α,6α)-	533.15	
125-28-0	Dihydrocodeine	385.65	
125-29-1	Hydrocodone	471.15	
125-33-7	Primidone	554.65	
125-40-6	Butabarbital	439.65	
125-42-8	Vinbarbital	434.15	
125-46-2	Usnic acid	477.15	
125-51-9	Pipenzolate bromide	452.65	
125-52-0	Oxyphencyclimine hydrochloride	504.65	
125-55-3	5-(2-Bromo-2-propen-1-yl)-1-methyl-5-(1-methylethyl)-2,4,6(1H,3H,5H)-pyrimidinetrione	388.15	
125-60-0	Fenpiverinium bromide	451.15	
125-64-4	Methyprylon	348.65	
125-65-5	Pleuromutilin	443.65	
125-66-6	(4α,8α,12α,13R,14S)-16-(1-Methylethyl)-17,19-dinoratis-15-ene-4,13,14-tricarboxylic acid	447.65	
125-68-8	Morphinan, 3-methoxy-17-methyl-, hydrobromide (1:1)	398.15	
125-69-9	Dextromethorphan hydrobromide	398.15	
125-70-2	Levomethorphan	355.15	
125-71-3	Dextromethorphan	353.15	
125-72-4	Levorphanol tartrate	480.15	
125-73-5	Dextrorphan	471.65	
125-79-1	α-[2-(Dimethylamino)propyl]-α-phenylbenzeneacetonitrile	363.65	
125-84-8	Aminoglutethimide	422.65	
125-85-9	Cyclopentanecarboxylic acid, 1-phenyl-, 2-(diethylamino)ethyl ester, hydrochloride (1:1)	418.65	
125-86-0	Caramiphen edisylate	388.65	
125-99-5	Benzenepropanaminium, γ-cyclohexyl-N,N,N-triethyl-γ-hydroxy-, iodide (1:1)	454.65	
1250-85-7	(11β)-21-(Acetyloxy)-9-fluoro-11-hydroxypregna-1,4,16-triene-3,20-dione	490.65	
1250-95-9	5α,6α-Epoxycholesterol	413.65	
1250-97-1	(11α)-21-(Acetyloxy)-11,17-dihydroxypregn-4-ene-3,20-dione	365.65	
12508-61-1	Magnesium hydroxide sulfate (Mg6(OH)10(SO4)), hydrate (1:3)	477.15	
1251-85-0	Diantipyrylmethane	451.65	
125116-23-6	Metconazole	384.65	558.15
125225-28-7	Ipconazole	362.15	
1253-28-7	Gestonorone caproate	396.65	
1253-84-5	Cholestane-3β,5α,6β-triol	490.65	
125306-83-4	Cafenstrole	388.15	
125313-92-0	3-(1-Methyl-1H-indol-3-yl)-4-(1-methyl-6-nitro-1H-indol-3-yl)-1H-pyrrole-2,5-dione	446.65	
125317-39-7	Navelbine	463.15	
1254-35-9	Oxabolone cipionate	432.15	
125401-92-5	Bispyribac-sodium	509.15	
125494-59-9	Sibutramine hydrochloride monohydrate	467.4	
1255-35-2	Fluprednidene acetate	505.65	
1255-49-8	Testosterone phenylpropionate	389.65	
1255-69-2	2-[Bis[4-(dimethylamino)phenyl]methyl]-5-(dimethylamino)benzoic acid	473.15	
125629-02-9	Butyl 3,4-dihydroxy-5-nitrobenzoate	353.65	
125670-69-1	4-[[(5S,5aS,8aR,9R)-5,5a,6,8,8a,9-Hexahydro-9-(4-hydroxy-3,5-dimethoxyphenyl)-8-oxofuro[3′,4′:6,7]naphtho[2,3-d]-1,3-dioxol-5-yl]amino]-2,2,6,6-tetramethyl-1-piperidinyloxy	492.15	
1257-08-5	Epicatechin gallate	504.15	
125792-14-5	Phosphonium, tributyltetradecyl-, tetrafluoroborate(1-) (1:1)	326.15	
1258-84-0	Pristimerin	491.65	
1259-35-4	Tris(pentafluorophenyl)phosphine	387.65	
12596-80-4	Ozonide	421.65	
12597-68-1	Stainless steel	1685.15	
125971-57-5	4-Methyl-3-oxo-N-phenyl-2-(phenylmethylene)pentanamide	464.65	
125974-72-3	Intoplicine	490.15	
126-00-1	4,4′-Bis(4-hydroxyphenyl)valeric acid	444.65	
126-02-3	1-Piperidinepropanol, α-cyclopentyl-α-phenyl-, hydrochloride (1:1)	515.65	
126-06-7	3-Bromo-1-chloro-5,5-dimethylhydantoin	436.65	
126-07-8	Griseofulvin	493.15	
126-11-4	Tris(hydroxymethyl)nitromethane	438.15	
126-12-5	4-Piperidinecarboxylic acid, 1-[2-(4-aminophenyl)ethyl]-4-phenyl-, ethyl ester, hydrochloride (1:2)	556.65	
126-14-7	Octaacetyl sucrose	359.65	
126-15-8	Dibutylene tetrafurfural	193.15	580.15
126-17-0	Solasodine	474.15	
126-18-1	Smilagenin	458.15	
126-19-2	Sarsasapogenin	473.65	
126-27-2	Oxethazaine	377.15	
126-29-4	Violaxanthin	481.15	
126-30-7	Neopentyl glycol	400.15	483.15
126-33-0	Sulfolane	300.75	558.15
126-50-1	4-Acetyl-4-(2-cyanoethyl)heptanedinitrile	427.15	
126-52-3	Ethinamate	370.15	
126-54-5	2,4,8,10-Tetraoxaspiro[5.5]undecane	321.45	
126-58-9	Dipentaerythritol	489.15	
126-64-7	Linalyl benzoate		536.15
126-71-6	Triisobutyl phosphate		537.15
126-72-7	Tris	278.65	
126-73-8	Tributyl phosphate		450.65
126-75-0	Demeton-S	369.15	
126-76-1	1,1′-[Dioxybis(1-methylpropylidene)]bis[hydroperoxide]	313.65	
126-80-7	1,3-Bis(3-glycidoxypropyl)-1,1,3,3-tetramethyldisiloxane	224.15	
126-81-8	Dimedone	423.15	
126-84-1	2,2-Diethoxypropane		387.15
126-86-3	2,4,7,9-Tetramethyl-5-decyne-4,7-diol	331.15	
126-90-9	(S)-Linalool	311.65	360.65
126-91-0	(-)-Linalool		353.15
126-92-1	Sodium 2-ethylhexyl sulfate	421.65	
126-93-2	Oxanamide	363.15	
126-98-7	Methacrylonitrile	237.35	363.45
126-99-8	Chloroprene	143.15	332.55
1260-17-9	Carminic acid	409.15	
1260-35-1	N-[3-(Acetylamino)-4-[2-(2-chloro-4-nitrophenyl)diazenyl]phenyl]-N-(3-methoxy-3-oxopropyl)-β-alanine methyl ester	424.15	
12604-58-9	Ferrovanadium	1723.15	
12607-92-0	Aceglutamide aluminum	494.15	
12607-93-1	Taxine	395.65	
12609-02-8	Aluminum alloy, base, Al 91-95,Cu 3.9-5.0,Si 0.50-1.2,Mn 0.40-1.2,Mg 0.20-0.8,Fe 0-0.7,Zn 0-0.25,Ti 0-0.15,Cr 0-0.10 (AA 2014)	851.4	
12609-95-9	2,2-Diferrocenylpropane	401.65	
1261-86-5	4,4′,4′′,4′′′-(1,2-Ethenediylidene)tetrakis[N,N-dimethylbenzenamine]	570.65	
126145-52-6	Methyl 2-hydroxy-5-tricyclo[3.3.1.13,7]dec-1-ylbenzoate	387.15	
12619-61-3	Aurantin	398.65	
1262-21-1	1,1,1,3,3,3-Hexaphenyldistannoxane	396.65	
12624-35-0	Ethylenediamine-linoleic acid dimer copolymer	408.15	
12626-17-4	Fumitremorgin B	479.15	
1263-79-2	(-)-Tetrandrine	483.15	
1263-89-4	Paromomycin sulfate	418.15	
1264-51-3	(3β,5β)-3-[(O-4-O-Acetyl-2,6-dideoxy-β-D-ribo-hexopyranosyl-(1→4)-O-2,6-dideoxy-β-D-ribo-hexopyranosyl-(1→4)-2,6-dideoxy-β-D-ribo-hexopyranosyl)oxy]-14-hydroxycard-20(22)-enolide	502.15	
1264-62-6	Erythromycin ethyl succinate	382.65	
126456-43-7	(1S,2R)-(-)-1-Amino-2-indanol	390.65	
12650-28-1	Barium silicate	1877.15	
12650-69-0	Mupirocin	350.65	
12653-55-3	Chromium boride	2473.15	
12653-76-8	Nickel titanium oxide	1838.15	
126544-47-6	Ciclesonide	483.15	
12656-40-5	N-[1-[(4S)-4-[(2,5-Dihydro-4-methoxy-2-oxo-1H-pyrrol-1-yl)carbonyl]-4,5-dihydro-2-thiazolyl]-2-hydroxyethyl]-2-[(E)-(hydroxyimino)methyl]-4-thiazolecarboxamide	446.15	
126613-06-7	(R)-2,2′-Bis(trifluoromethanesulfonyloxy)-1,1′-binaphthyl	342.15	
12672-29-6	PCB 1248	630.65	630.65
126747-14-6	4-Cyanophenylboronic acid	553.15	
12676-71-0	Niphimycin	403.65	
126801-58-9	Ethoxysulfuron	418.15	
126826-63-9	N-[4-[[(Hexahydro-1-methyl-2H-azepin-2-ylidene)amino]sulfonyl]phenyl]acetamide	439.15	
126833-17-8	Fenhexamid	414.15	
126850-29-1	2-Oxepanone, homopolymer, ester with 2,2′-[oxybis(methylene)]bis[2-(hydroxymethyl)-1,3-propanediol] (6:1)	316.05	
12692-85-2	Antiamebin	492.65	
127-00-4	1-Chloro-2-propanol		399.65
127-06-0	Acetone, oxime	334.15	409.15
127-07-1	Hydroxyurea	414.15	
127-08-2	Potassium acetate	565.15	
127-09-3	Sodium acetate	597.15	
127-17-3	Pyruvic acid	286.95	327.15
127-18-4	Tetrachloroethylene	250.85	394.45
127-19-5	Dimethylacetamide	254.56	437.15
127-20-8	Dalapon sodium	439.65	
127-21-9	1,3-Dichlorotetrafluoroacetone		317.15
127-22-0	Taraxerol	556.65	
127-25-3	Methyl abietate		635.65
127-27-5	Pimaric acid	491.65	555.15
127-29-7	Pseudaconitine	479.15	
127-31-1	Fludrocortisone	534.15	
127-33-3	Demeclocycline	449.15	
127-35-5	Phenazocine	454.15	
127-40-2	Lutein A	469.15	
127-41-3	α-Ionone		404.15
127-42-4	(1E)-1-[(1R)-2,6,6-Trimethyl-2-cyclohexen-1-yl]-1-penten-3-one		511.15
127-43-5	β-Iraldeine		406.15
127-47-9	Retinol, acetate	330.65	
127-48-0	Trimethadione	319.15	
127-52-6	Chloramine B	444.65	
127-56-0	Sodium sulfacetamide	530.15	
127-57-1	Benzenesulfonamide, 4-amino-N-2-pyridinyl-, sodium salt (1:1)	589.9	
127-59-3	N,N-Dibutyl-4-chlorobenzenesulfonamide	310.4	
127-63-9	Phenyl sulfone	401.65	552.15
127-65-1	Chloramine-T	446.65	
127-66-2	2-Phenyl-3-butyn-2-ol	325.45	490.65
127-68-4	Benzenesulfonic acid, 3-nitro-, sodium salt (1:1)	325.45	490.65
127-69-5	Sulfisoxazole	467.15	
127-71-9	Sulfabenzamide	454.65	
127-73-1	N4-Acetylsulfamerazine	520.65	
127-74-2	Acetylsulfadiazine	532.15	
127-75-3	Acetylsulfamethoxypyridazine	499.65	
127-76-4	Acetylsulfathiazole	529.65	
127-77-5	Sulfabenz	473.15	
127-79-7	Sulfamerazine	509.15	
127-90-2	Octachlorodipropyl ether	223.15	420.15
127-91-3	β-Pinene	211.65	439.15
1270-98-0	Cyclopentadienyltitanium trichloride	471.65	
127045-41-4	Pazufloxacin	543.4	
12708-27-9	Hongheloside G	470.65	
1271-03-0	(η5-2,4-Cyclopentadien-1-yl)(η3-2-propen-1-yl)palladium	334.15	
1271-19-8	Titanocene dichloride	562.15	
1271-24-5	Chromocene	444.15	
1271-28-9	Nickelocene	445.65	
1271-43-8	(η6-Benzene)(η5-2,4-cyclopentadien-1-yl)manganese	471.65	
1271-51-8	Vinylferrocene	324.15	
1271-54-1	Chromium, bis(η6-benzene)-	556.15	
1271-55-2	Acetylferrocene	358.15	
1271-86-9	N,N-Dimethylaminomethylferrocene	279.93	
1271-94-9	(1-Oxobutyl)ferrocene	309.15	
1272-22-6	Tris(η5-2,4-cyclopentadien-1-yl)holmium	568.15	
1272-24-8	Tris(η5-2,4-cyclopentadien-1-yl)lutetium	537.15	
1272-25-9	Tris(η5-2,4-cyclopentadien-1-yl)terbium	589.15	
1272-26-0	Tris(η5-2,4-cyclopentadien-1-yl)thulium	551.15	
1272-44-2	Benzoylferrocene	381.65	
127245-22-1	4-[[3,5-Bis(1,1-dimethylethyl)-4-hydroxyphenyl]methylene]dihydro-2-methyl-2H-1,2-oxazin-3(4H)-one	444.65	
12728-25-5	Desertomycin	462.65	
1273-94-5	1,1′-Diacetylferrocene	400.4	
12737-27-8	Chromium iron oxide	2123.15	
12737-98-3	Lead tungsten oxide	1398.15	
127373-66-4	Sivelestat	488.15	
127378-46-5	5-[[3,5-Bis(1,1-dimethylethyl)-4-hydroxyphenyl]methylene]-2,4-thiazolidinedione	485.65	
12738-19-1	Odoroside A	455.65	
12738-64-6	Sucrose benzoate	371.15	
127464-43-1	Mexidol	392.65	
12758-40-6	Carboxyethylgermanium sesquioxide	543.15	
127667-01-0	2-Fluoro-5-methoxybenzonitrile	356.15	
1277-43-6	Cobaltocene	445.15	
1277-47-0	Vanadocene	439.15	
1277-49-2	1-Ferrocenylethanol	351.65	
1277-58-3	(2,2-Dimethylpropyl)ferrocene	335.15	
12771-68-5	(±)-Ancymidol	383.65	
12772-47-3	Pentol	522.4	
12772-57-5	Radicicol	466.65	
127759-89-1	Lobucavir	550.65	
127792-24-9	2-[(2-Chloro-6-iodophenyl)amino]benzeneacetic acid	443.15	
127792-75-0	1,4-Dihydro-3-(1,2,3,6-tetrahydro-4-pyridinyl)-5H-pyrrolo[3,2-b]pyridin-5-one	521.15	
12789-03-6	Chlordane	380.15	
127946-77-4	Cyclopropanecarbonitrile, 1-amino-, hydrochloride (1:1)	444.15	
128-04-1	Sodium dimethyldithiocarbamate	380.15	
128-08-5	N-Bromosuccinimide	447.15	
128-09-6	Chlorosuccinimide	423.65	489.65
128-13-2	Ursodeoxycholic acid	476.15	
128-20-1	Pregnanolone	422.65	
128-21-2	Epipregnanolone	409.15	
128-23-4	5β-Dihydroprogesterone	396.15	
128-27-8	Pyrocalciferol	367.15	
128-33-6	Zymosterol	383.15	
128-37-0	2,6-Di-tert-butyl-4-methylphenol	343.15	538.15
128-38-1	4,4′-Bis(2,6-di-tert-butylphenol)	457.65	
128-39-2	2,6-Di-tert-butylphenol	310.15	526.15
128-42-7	4,4′-Dinitro-2,2′-stilbenedisulfonic acid	539.15	
128-44-9	Sodium saccharin	393.15	
128-50-7	Nopol		508.15
128-53-0	N-Ethylmaleimide	318.65	
128-62-1	Noscapine	449.15	
128-65-4	2,9-Diphenylanthra[2,1,9-def:6,5,10-d'e'f′]diisoquinoline-1,3,8,10(2H,9H)-tetrone	475.15	
128-66-5	Dibenzo[b,def]chrysene-7,14-dione	658.15	
128-67-6	9,10-Dihydro-1-nitro-9,10-dioxo-2-anthracenecarboxylic acid	556.15	
128-68-7	Phenicin	503.15	
128-76-7	Laurotetanine	415.15	
128-80-3	Solvent Green 3	491.15	
128-83-6	1-Amino-2-bromo-4-[(4-methylphenyl)amino]-9,10-anthracenedione	502.65	
128-91-6	1,5-Dihydroxy-4,8-dinitro-9,10-anthracenedione	634.15	
128-93-8	1-Bromo-4-(methylamino)-9,10-anthracenedione	452.65	
128-95-0	Disperse Violet 1	541.15	
128-97-2	1,4,5,8-Naphthalenetetracarboxylic acid	453.15	
128075-79-6	N2,N4-Bis(2-methoxyethyl)-2,4-pyridinedicarboxamide	359.15	
128143-89-5	4′-Chloro-2,2′:6′,2′′-terpyridine	423.65	
1282-40-2	Bis(methylcyclopentadienyl)titanium dichloride	495.65	
128232-14-4	Raxofelast	438.65	
128241-72-5	3-Phosphono-D-alanine	498.15	
128275-31-0	Eureco	363.15	
1284-72-6	Bis(cyclopentadienyl)magnesium	450.15	
1284-81-7	Chlorotris(η5-2,4-cyclopentadien-1-yl)uranium	535.65	
128487-66-1	Thiosulfuric acid (H2S2O3), S-[2-[[(3-hydroxytricyclo[3.3.1.13,7]dec-1-yl)methyl]amino]-2-iminoethyl] ester	480.15	
128495-46-5	4-Fluoro-3-methoxybenzaldehyde	302.65	
128625-52-5	PyBOP	429.65	
128639-02-1	Carfentrazone-ethyl	251.05	625.65
1287-13-4	Ruthenocene	468.65	
1287-38-3	1,1′′-Biferrocene	502.15	
128796-39-4	4-(Trifluoromethyl)phenylboronic acid	505.65	
128903-20-8	2,3-Diethyl-2,3-dimethylbutanedinitrile	370.15	
129-00-0	Pyrene	424.35	677.15
129-03-3	Cyproheptadine	385.95	
129-15-7	2-Methyl-1-nitroanthraquinone	543.65	
129-20-4	Oxazolidin	369.15	
129-35-1	1-Chloro-2-methyl-9,10-anthracenedione	443.65	
129-37-3	9,10-Dihydro-8-nitro-9,10-dioxo-1-anthracenesulfonic acid	613.15	
129-39-5	1,8-Dinitro-9,10-anthracenedione	583.15	
129-40-8	1-Chloro-5-nitro-9,10-anthracenedione	587.15	
129-42-0	1,8-Diamino-9,10-anthracenedione	535.15	
129-43-1	1-Hydroxyanthraquinone	466.95	
129-44-2	1,5-Diaminoanthraquinone	592.15	
129-45-3	1-(Butylamino)-9,10-anthracenedione	354.65	
129-51-1	Ergonovine maleate	440.15	
129-56-6	Anthra[1,9-cd]pyrazol-6(2H)-one	550.65	
129-64-6	Carbic anhydride	437.65	
129-66-8	2,4,6-Trinitrobenzoic acid	501.85	
129-71-5	Piperazine, 1-[(4-chlorophenyl)phenylmethyl]-4-methyl-, hydrochloride (1:2)	489.15	
129-73-7	Leucomalachite green	365.15	
129-74-8	Buclizine hydrochloride	508.15	
129-77-1	Piperidolate hydrochloride	468.65	
129-79-3	Trinitrofluorenone	448.75	
129-81-7	4-Iodoantipyrine	433.65	
129-83-9	N-[1-Methyl-2-(1-piperidinyl)ethyl]-N-phenylpropanamide		399.15
129-94-2	2-[(8-Chloro-1-naphthalenyl)thio]acetic acid	432.65	
129042-71-3	β-Aminocyclohexanepropanoic acid	490.65	
1291-32-3	Zirconocene, dichloride	515.65	516.65
1291-37-8	Pyridinium, 1-[2-methoxy-1-(methoxycarbonyl)-2-oxoethyl]-, inner salt	458.65	
1291-40-3	Molybdenum, bis(η5-2,4-cyclopentadien-1-yl)dihydro-	437.15	
1291-47-0	1,1′-Dimethylferrocene	307.65	
129101-54-8	Rivastigmine tartrate	396.65	
129318-43-0	Alendronate sodium	392.15	
129448-97-1	α-[[(2-Bromoethyl)amino]methyl]-2-nitro-1H-imidazole-1-ethanol hydrobromide (1:1)	441.15	
129453-61-8	Fulvestrant	381.15	
1295-20-1	Tris(η5-2,4-cyclopentadien-1-yl)ytterbium	541.65	
1295-35-8	Bis(1,5-cyclooctadiene)nickel	414.15	
129618-40-2	Nevirapine	521.15	
129683-93-8	Artonin E	514.15	
129688-50-2	Minalrestat	504.65	
129722-12-9	Aripiprazole	383.15	
129748-10-3	Incarvillateine	490.65	
1298-55-1	Tris(η5-2,4-cyclopentadien-1-yl)samarium	638.15	
1299-86-1	Aluminum carbide (Al4C3)	2473.15	
130-00-7	Benz[cd]indol-2(1H)-one	454.15	
130-01-8	(-)-Senecionine	509.15	
130-15-4	1,4-Naphthoquinone	399.15	
130-16-5	5-Chloro-8-hydroxyquinoline	403.15	
130-17-6	2-(4-Aminophenyl)-6-methyl-7-benzothiazolesulfonic acid	592.15	
130-22-3	Alizarin Red S	556.15	
130-24-5	4-Amino-2-methyl-1-naphthol hydrochloride	553.15	
130-26-7	Clioquinol	451.65	
130-42-7	1,4-Pentanediamine, N4-(6-chloro-2-methoxy-9-acridinyl)-N1,N1-diethyl-, hydrochloride (1:1)	517.65	
130-49-4	Adenosine 2′-phosphate	456.15	
130-61-0	Thioridazine hydrochloride	432.15	
130-73-4	Methestrol	418.15	
130-78-9	3,4-Bis(4-methoxyphenyl)hexane	419.15	
130-79-0	Diethylstilbestrol dimethyl ether	397.15	
130-80-3	Diethylstilbestrol dipropionate	377.15	
130-83-6	5H-Dibenz[c,e]azepine, 6,7-dihydro-6-(2-propenyl)-, phosphate (1:1)	486.15	
130-85-8	Pamoic acid	588.15	
130-86-9	Protopine	481.15	
130-89-2	Quinine, monohydrochloride	432.15	
130-90-5	Cinchonan-9-ol, 6′-methoxy-, (8α,9R)-, monoformate (salt)	422.65	
130-95-0	Quinine	330.15	
1300-21-6	Dichloroethane		356.15
1300-32-9	Furancarbonyl chloride	271.15	443.15
1300-71-6	Dimethylphenol	321.15	487.15
1300-73-8	Xylidine	237.15	492.65
1300-94-3	Amylmetacresol	297.15	
13001-28-0	1-Chloro-4-(2-chloroethoxy)benzene	312.15	
13001-38-2	2-[2-[4-[2-(4-Cyanophenyl)ethenyl]phenyl]ethenyl]benzonitrile	464.15	
13001-39-3	2,2′-(1,4-Phenylenedi-2,1-ethenediyl)bis[benzonitrile]	503.15	
13001-40-6	4,4′-(1,4-Phenylenedi-2,1-ethenediyl)bis[benzonitrile]	551.65	
13002-09-0	1,1′-[Ethylidenebis(oxy)]bis[3-methylbutane]		372.45
13002-65-8	(E)-Tamoxifen	344.15	
13006-29-6	1,2-Undecanediol	324.65	
130064-18-5	1-[2-[4-(3-Phenyl-2H-1-benzopyran-2-yl)phenoxy]ethyl]piperidine	360.15	
13007-90-4	Dicarbonylbis(triphenylphosphine)nickel	342.15	
13007-92-6	Chromium hexacarbonyl	422.65	
13009-91-1	Tripropylenemelamine	377.65	
13009-99-9	Mafenide acetate	443.65	
1301-42-4	Euprocin	425.15	
13010-08-7	N-Butyl-N′-nitro-N-nitrosoguanidine	386.15	
13010-10-1	N′-Nitro-N-nitroso-N-pentylguanidine	397.15	
13010-20-3	Nitrosourea	384.3	
13010-31-6	Tetrapropylammonium	490.15	
13010-47-4	Lomustine	362.15	
13011-95-5	1,4-Dimethyl 1,2,4,5-benzenetetracarboxylate	511.65	
13014-18-1	2,4-Dichlorobenzotrichloride	320.65	
13014-24-9	1,2-Dichloro-4-(trichloromethyl)benzene	298.95	556.25
13014-84-1	(3-Aminopropyl)diethylmethylsilane		460.15
13014-91-0	2,4,6-Tris(2-phenyldiazenyl)phenol	496.15	
13017-11-3	2-Propenoic acid, 2-methyl-, (1aR,3R,8S,8aR,11aS,11bR)-1a,2,3,7,8,8a,9,10,11a,11b-decahydro-1a-methyl-9-methylene-5,10-dioxo-5H-3,6-methenofuro[2,3-f]oxireno[d]oxacycloundecin-8-yl ester	536.15	
13018-95-6	1-Octadecanaminium, N-(2-hydroxyethyl)-N,N-dimethyl-, chloride (1:1)		512.15
130187-60-9	1H-Purine-2,6-dione, 8-[[2-(butylamino)ethyl]amino]-3,7-dihydro-1,3-dimethyl-7-(phenylmethyl)-, hydrochloride (1:1)	505.65	
13019-20-0	2-Methyl-3-heptanone		431.15
13019-22-2	9-Decen-1-ol	326.65	509.15
130198-05-9	Cyclohexanol, 1-[2-amino-1-(4-methoxyphenyl)ethyl]-, hydrochloride (1:1)	443.15	
1302-09-6	Silver selenide (Ag2Se)	1153.15	
1302-37-0	Spodumene (AlLi(SiO3)2)	1223.15	
1302-42-7	Sodium metaaluminate	1923.15	
1302-52-9	Beryl (Al2Be3(SiO3)6)	1923.15	
1302-67-6	Spinel	2408.15	
1302-74-5	Corundum	2327.15	
1302-81-4	Aluminum sulfide (Al2S3)	1373.15	
13020-19-4	Cirsimarin	518.15	
13020-57-0	3-Hydroxybenzophenone	388.15	
13020-83-2	9H-Purin-6-aminium, N,N,N-trimethyl-, chloride (1:1)	438.65	
130200-70-3	1,2-Dihydro-1-methyl-6-(trifluoromethyl)-1,2,4-benzotriazine	397.15	
13021-15-3	N,N,2,4,6-Pentamethylbenzenamine		487.15
13021-50-6	1-Ethoxy-3-(1-methylethoxy)-2-propanol		481.15
13021-51-7	1-Butoxy-3-methoxy-2-propanol		481.15
13021-54-0	1,3-Bis(1-methylethoxy)-2-propanol		474.85
13021-71-1	4-Methyl-N-(phenylmethyl)-2-pyridinamine	349.15	
13024-49-2	4-(2-Phenylethyl)benzenamine	326.15	
13024-90-3	1-(4-Chlorophenyl)-3-methyl-5-pyrazolone	441.15	
13025-69-9	Hydrazinium, 1-(2-chloroethyl)-1,1-dimethyl-, chloride (1:1)	389.65	
13026-12-5	3-(1-Naphthalenyl)-2-propenoic acid	426.15	
13026-23-8	3-[1,1′-Biphenyl]-4-yl-2-propenoic acid	498.15	
13026-44-3	4-Hydroxy-3-methoxyamphetamine	429.9	
13027-05-9	Carbamic acid, N,N′-1,2-ethanediylbis-, C,C′-bis(2-hydroxyethyl) ester	363.15	
13027-88-8	2-Hydroxy-2-methylpropanamide	366.65	
13029-08-8	PCB 4	334.65	
13029-09-9	2,2′-Dibromobiphenyl	354.15	
13029-44-2	4,4′-[(1E,2E)-1,2-Diethylidene-1,2-ethanediyl]bis[phenol]	503.15	
1303-00-0	Gallium arsenide	1511.15	
1303-11-3	Indium arsenide	1216.45	
1303-13-5	Nickeline (NiAs)	1243.15	
1303-18-0	Arsenopyrite (FeAsS)	975.15	
1303-28-2	Arsenic oxide (As2O5)	573.15	
1303-33-9	Arsenic sulfide	583.15	980.15
1303-36-2	Arsenic selenide (As2Se3)	533.15	
1303-86-2	Boron oxide (B2O3)	723.15	2133.15
1303-96-4	Borax (B4Na2O7.10H2O)	348.15	593.15
13031-04-4	Ketopantolactone	333.15	
13031-39-5	Acetic acid, 3-chlorophenyl ester		381.15
13031-41-9	4-(Acetyloxy)benzonitrile	330.15	
13031-43-1	1-[4-(Acetyloxy)phenyl]ethanone	326.15	
13031-60-2	Methyl 4-aminobutyrate hydrochloride	379.15	
13031-62-4	Butanamide, 4-amino-, hydrochloride (1:1)	400.65	
13031-76-0	3-Hydroxysulfolane	308.15	415.15
13033-91-5	3-Ethyl-5-[2-(3-ethyl-2(3H)-benzoxazolylidene)ethylidene]-1-phenyl-2-thioxo-4-imidazolidinone	540.15	
13035-61-5	β-D-Ribofuranose, 1,2,3,5-tetraacetate	355.15	
13036-02-7	Dimethyl 5-hydroxyisophthalate	437.15	
13036-19-6	4-[[(4-Methoxyphenyl)methylene]amino]benzonitrile	379.15	
13036-41-4	N-(Ethoxymethyl)-2-propenamide	280.65	
13036-75-4	Disulfuryl fluoride		324.15
13036-83-4	1,3,5-Tributylhexahydro-1,3,5-triazine		558.15
13036-87-8	Carbamodithioic acid, N-ethyl-, sodium salt (1:1)	346.15	
13037-20-2	Ethyl N-phenylcarbamodithioate	340.65	
13037-47-3	2-[[[(3,4-Dichlorophenyl)amino]thioxomethyl]thio]acetic acid	430.15	
13037-55-3	3-(4-Chlorophenyl)rhodanine	401.65	
13037-56-4	5-Benzylidene-3-phenylrhodanine	465.15	
13037-79-1	2-tert-Butyl-m-cresol	296.15	
13037-86-0	4-(Heptyloxy)phenol	334.65	
130370-60-4	Batimastat	510.15	