CAS	name	Tm	Tb
23307-05-3	Methanamine, N-methyl-, sulfate (1:1)	313.25	584.05
23313-21-5	Emodin 8-O-β-D-glucopyranoside	492.65	
23323-37-7	N-Octylglucamine	395.15	
23327-57-3	(±)-Nefopam hydrochloride	513.15	
23328-62-3	(Methylthio)acetaldehyde		404.65
23328-87-2	2-Heptadecylimidazole	361.15	
23332-31-2	(Acetato-κO)[4-(dimethylamino)phenyl]mercury	418.65	
23341-13-1	5-Cyano-1,3-benzenedicarboxylic acid	603.15	
23350-56-3	3-Ethyl-5-[2-(1-ethyl-2(1H)-quinolinylidene)ethylidene]-2-thioxo-4-thiazolidinone	512.65	
23350-58-5	2-Butenamide	432.9	
23351-91-9	5-Bromo-1,3-benzenedicarboxylic acid	549.15	
23356-96-9	L-Prolinol	347.65	
23357-46-2	(-)-1,2,3,4-Tetrahydro-1-naphthylamine	390.65	
23360-92-1	Leurosine	476.65	
23363-88-4	N-(4-Hydroxycyclohexyl)acetamide	408.15	
23364-04-7	α-Amino-3-cyclohexene-1-acetic acid	585.15	
23373-04-8	2′,4′-Dibromoacetanilide	418.55008	
23378-88-3	3,5-Dichloro-2-hydroxybenzenesulfonyl chloride	380.55	
2338-12-7	5-Nitrobenzotriazole	490.15	
2338-18-3	2-Aminoindan hydrochloride	513.15	
2338-20-7	3,4,5-Triiodobenzoic acid	561.15	
2338-25-2	5,6-Dichloro-2-(trifluoromethyl)-1H-benzimidazole	513.15	
2338-29-6	4,5,6,7-Tetrachloro-2-(trifluoromethyl)-1H-benzimidazole	558.15	
2338-30-9	4,5,6,7-Tetrabromo-2-(trifluoromethyl)-1H-benzimidazole	544.65	
2338-37-6	(-)-Propoxyphene	348.65	
2338-75-2	4-(Trifluoromethyl)benzeneacetonitrile	321.15	404.65
23380-54-3	2-Amino-5-(aminosulfonyl)-4-chloro-N-(2-methylphenyl)benzamide	563.65	
23382-12-9	Ethanol, 2-amino-, hydrobromide (1:1)	365.65	
23384-03-4	N-(3-Chlorophenyl)-1,1,1-trifluoromethanesulfonamide	349.65	
23384-04-5	N-(4-Chlorophenyl)-1,1,1-trifluoromethanesulfonamide	324.15	
23389-75-5	α-Methyl-4-pyridinemethanol	327.15	
2339-78-8	1,2-Dichloro-4-fluoro-5-nitrobenzene	290.15	520.15
23394-15-2	Cholest-5-en-3-ol (3β)-, hexanedioate (2:1)	418.65	
23399-88-4	1,3,5-Trichloro-2-ethoxybenzene	316.65	521.15
23399-90-8	Phenol, 2,4,6-trichloro-, 1-acetate	323.15	
234-41-3	Naphtho[1,2-b]thiophene	300.65	
234-95-7	Pyrrolo[1,2-a]quinoxaline	411.15	
2340-57-0	9-[3-(Dimethylamino)propyl]-2-(trifluoromethyl)-9H-thioxanthen-9-ol	390.15	
23405-31-4	Ethyl 1,3-dihydro-1-oxo-5-isobenzofurancarboxylate	422.15	
23409-02-1	Zinc, bis(butylcarbamodithioato-κS,κS′)-, (T-4)-	441.15	
2341-22-2	5-Fluorocytidine	468.15	
23414-72-4	Zinc permanganate	370.65	
23420-04-4	Leucine, ethyl ester, hydrochloride (1:1)	381.15	
23420-61-3	N-(3,4-Dimethylphenyl)-4,5-dihydro-2-oxazolamine	410.65	
23422-53-9	Formetanate hydrochloride	474.15	
2343-36-4	2-Fluoroacetic acid 2-phenylhydrazide	369.65	
23433-05-8	1,3-Octanediol	341.65	
23433-07-0	1,3-Nonanediol	419.15	
23434-86-8	3-(1,3-Benzodioxol-5-yl)-1-(1-piperidinyl)-2-propen-1-one	354.15	
23436-19-3	1-(2-Methylpropoxy)-2-propanol		438.15
23438-11-1	2-Methyl-2-(4-methylphenoxy)propanoic acid	346.65	
2344-70-9	4-Phenyl-2-butanol	334.15	512.15
2344-80-1	(Chloromethyl)trimethylsilane		371.65
2344-83-4	(3-Chloropropyl)trimethylsilane		424.15
23441-75-0	4-Phenyl-2(1H)-quinazolinone	524.15	
23443-11-0	6-Methyl-4H-pyrido[1,2-a]pyrimidin-4-one	383.15	
23445-00-3	Swertianolin	472.15	
23446-55-1	1-Methyl-4-(3-methylbutoxy)benzene		513.15
2345-12-2	12-Oxotridecanoic acid	344.65	
2345-17-7	Irisolidone	463.65	
2345-27-9	2-Tetradecanone	306.65	
2345-28-0	2-Pentadecanone	312.65	567.15
2345-32-6	4,4,4-Trichlorobutanoic acid	324.65	
2345-34-8	p-Acetoxybenzoic acid	465.65	
2345-38-2	(Trimethylsilyl)acetic acid	314.15	
2345-40-6	4-(Trimethylsilyl)butanoic acid	277.15	
2345-51-9	3-Butynoic acid	356.15	
2345-56-4	3-Amino-3-oxopropanoic acid	394.15	
2345-61-1	(2E)-3-Chloro-2-propenoic acid	358.9	
23450-49-9	5-Cinnamylidenebarbituric acid	500.15	
23452-05-3	Djalonensone	551.15	
23454-33-3	(17β)-17-[[(Cyclohexylmethoxy)carbonyl]oxy]estra-4,9,11-trien-3-one	365.65	
23455-78-9	5-(4-Aminophenyl)-1,2-dihydro-3H-1,2,4-triazole-3-thione	555.15	
23458-02-8	(+)-Decursinol	451.15	
2346-00-1	2-Methyl-2-thiazoline	172.15	418.15
2346-81-8	3-Chlorohexane		396.15
23460-76-6	21-(Acetyloxy)pregna-4,9(11),16-triene-3,20-dione	397.65	
23465-76-1	Caroverine	342.15	
23468-31-7	5-Chloro-6-(chloromethyl)-1,3-benzodioxole	338.15	
23470-00-0	2-Palmitoylglycerol	347.15	
23474-99-9	Guanidine, [(3,4-dihydro-2H-1,5-benzodioxepin-7-yl)methyl]-, sulfate (2:1)	494.15	
23477-98-7	Sedecamycin	481.65	
2348-79-0	2-(Dimethylamino)-1,4-naphthoquinone	395.15	
2348-81-4	2-Amino-1,4-naphthoquinone	480.15	
2348-82-5	2-Methoxy-1,4-naphthoquinone	380.15	
23483-22-9	[(1,1-Dimethyl-2-propen-1-yl)oxy]dimethylsilane		382.65
23488-38-2	2,3,5,6-Tetrabromo-p-xylene	520.15	
2349-07-7	Hexyl isobutyrate		472.15
2349-58-8	4,5-Diphenyl-2-imidazolethiol	589.15	
2349-67-9	2-Amino-5-mercapto-1,3,4-thiadiazole	508.15	
2349-71-5	2-(1-Methylethyl)-1,4-benzenediol	404.15	
23495-28-5	4-Chloro-N-methyl-2-(1,2,3,4-tetrahydro-1-isoquinolinyl)benzenamine	415.15	
23498-36-4	(2S)-N-[(1S,2R,3E,5E,7S,9E,11E,13S,15R,19R)-13-(Acetyloxy)-7-hydroxy-1,4,10,19-tetramethyl-17,18-dioxo-16-oxabicyclo[13.2.2]nonadeca-3,5,9,11-tetraen-2-yl]-2-hydroxypropanamide	463.65	
23498-37-5	(2S)-N-[(1S,2R,3E,5E,7S,9E,11E,13S,15R,19R)-7,13-Dihydroxy-1,4,10,19-tetramethyl-17,18-dioxo-16-oxabicyclo[13.2.2]nonadeca-3,5,9,11-tetraen-2-yl]-2-hydroxypropanamide	451.65	
235-06-3	[1,2,4]Triazolo[4,3-a]quinoline	448.15	
2350-11-0	2-Chlorododecane	316.65	
2350-26-7	1-Chloro-3,4-dimethylhexane		448.15
2350-32-5	Benzoic acid, 4-butoxy-, 2-(diethylamino)ethyl ester, hydrochloride (1:1)	419.15	
2350-89-2	4-Ethenyl-1,1′-biphenyl	392.15	
23500-10-9	1-(2-Chloroacetyl)-L-proline	385.65	
23500-13-2	1-(1-Oxobutyl)-L-proline	477.15	
23503-68-6	2-(Methylsulfonyl)-10H-phenothiazine	430.4	
23504-03-2	4-Isopropylresorcinol	378.15	
23505-41-1	Pirimiphos ethyl	289.65	
23509-48-0	3-(Phenylmethyl)-5-(phenylmethylene)-2-thioxo-4-thiazolidinone	492.15	
2351-33-9	1,1-Dichlorosilacyclobutane		386.65
2351-36-2	2,6-Naphthalenedicarbonyl dichloride	458.4	
2351-37-3	4,4′-Biphenyldicarbonyl chloride	454.65	
2351-97-5	2-Pentenoic acid, 4-methyl-, ethyl ester		331.4
23510-18-1	Benzenemethanamine, N-(2-chloroethyl)-N-methyl-, hydrochloride (1:1)	413.65	
23511-70-8	2-Phenoxyethyl butyrate		524.15
23513-14-6	[6]-Gingerol	304.15	
23513-15-7	[10]-Gingerol	330.15	
23516-79-2	1-(4-Aminophenyl)-2,2,2-trifluoroethanone	360.15	
23517-78-4	3-(1-Naphthalenyl)-2-thioxo-4-thiazolidinone	444.65	
2352-88-7	2-[[Bis[2-[(1-oxooctadecyl)amino]ethyl]amino]carbonyl]benzoic acid	332.15	
23521-49-5	(1Z)-1-Bromo-2-ethoxyethene		408.65
23522-05-6	Gracilin	391.65	
23522-37-4	3-(2-Methylphenyl)-2-thioxo-4-thiazolidinone	421.15	
23525-22-6	Diphenylcyanoarsine	308.15	
2353-33-5	5-Aza-2′-deoxycytidine	471.65	
2353-58-4	Pregnan-20-one, 21-(acetyloxy)-6-fluoro-3,5,17-trihydroxy-16-methyl-, (3β,5α,6β,16α)-	527.65	
23537-16-8	(+)-Rugulosin	566.15	
23541-09-5	L-Arginine, compd. with (R)-N-(2,4-dihydroxy-3,3-dimethyl-1-oxobutyl)-β-alanine (1:1)	380.65	
23541-50-6	Daunorubicin hydrochloride	462.15	
23543-66-0	1-(3-Methyl-1H-indol-1-yl)ethanone	341.15	
23549-24-8	(3β,20E)-3-(Acetyloxy)pregna-5,16-dien-20-one 20-oxime	493.65	
23550-76-7	1,3-Benzodioxole-5-carboxaldehyde, 2-phenylhydrazone	396.15	
23552-75-2	3-[(9,10-Dihydro-4-hydroxy-9,10-dioxo-1-anthracenyl)amino]-2-methylpropanenitrile	422.65	
23559-40-2	2-Isobornyl-4-methylphenol	345.3	
23563-26-0	N-(4-Butoxyphenyl)acetamide	385.15	
23564-05-8	Thiophanate methyl	445.15	
23564-06-9	Thiophanate	467.15	
23564-81-0	N-Phenyl-2-chlorobenzamidine	443.15	
23566-23-6	Bis(p-chlorobenzyl) sulfide	314.9	
23567-23-9	Procyanidin B3	492.15	
23567-67-1	4-(1,2,3,4-Thiatriazol-5-ylamino)phenol	343.15	
2357-52-0	4-Bromo-2-fluoroanisole	289.15	369.4
23578-35-0	2,5-Diamino-2,5-dimethylhexane	366.15	
2358-03-4	5-Methyl hydrogen 4-fluoroglutamate	426.65	
2358-29-4	2,3,6-Trifluorobenzoic acid	403.65	
23582-02-7	Triphos	404.65	
23588-51-4	α,α-Dimethyl-4-morpholinepropanal	456.15	
2359-09-3	5-tert-Butylisophthalic acid	616.15	
2359-15-1	Methylenebismethacrylamide	433.65	
23590-99-0	(αR)-α-[(R)-1-Formyl-2-hydroxyethoxy]-1,6-dihydro-6-oxo-9H-purine-9-acetaldehyde	422.15	
23593-08-0	1H-Imidazole, 2-[(4-chloro-1-naphthalenyl)methyl]-4,5-dihydro-, hydrochloride (1:1)	529.65	
23593-75-1	Clotrimazole	421.15	
23597-82-2	Hexyl nicotinate		420.15
23598-72-3	3-(2-Chlorophenyl)-5-methyl-4-isoxazolecarboxylic acid	467.65	
236-02-2	1H-Phenanthro[9,10-d]imidazole	561.65	
2360-45-4	2-Propionylbenzoic acid	366.15	
23600-77-3	Phenol, 4-bromo-, 1-propanoate	284.75	
23605-05-2	α-Antiarin	515.4	
23605-74-5	Hexanediaminetetra(methylenephosphonic acid)	515.15	
23609-65-6	Quinolinium, 4-amino-6-[(1,2-dihydro-2-imino-1,6-dimethyl-4-pyrimidinyl)amino]-1,2-dimethyl-, chloride, hydrochloride (1:1:1)	589.65	
2361-27-5	Thiophene-2-carbohydrazide	414.65	
2361-96-8	Acetyl-L-phenylalanine ethyl ester	339.65	
23612-46-6	N-(3-Methyl-2-pyridinyl)benzamide	495.15	
23613-02-7	6-(Diethylamino)-4-(ethylamino)-1,3,5-triazine-2(1H)-thione	410.65	
23615-60-3	2-(3,5-Dimethyl-1H-pyrazol-1-yl)benzothiazole	419.65	
23616-79-7	Benzyltributylammonium chloride	430.15	
2362-10-9	1,3-Bis(chloromethyl)-1,1,3,3-tetramethyldisiloxane	183.15	477.65
2362-12-1	4-Bromo-2-methylphenol	337.85	508.15
2362-14-3	1,1-Bis(4-hydroxy-3-methylphenyl)cyclohexane	459.15	
2362-26-7	N,N′-1,4-Phenylenebis[4-aminobenzamide]	598.15	
2362-50-7	Thianthrene, 5-oxide	416.4	
2362-61-0	rel-(1R,2S)-2-Phenylcyclohexanol	329.65	426.65
2362-62-1	4-Methylbenzenecarbothioamide	361.15	
2362-64-3	4-Methoxybenzenecarbothioamide	372	
2362-77-8	N-[(4-Methylphenyl)methylene]benzenamine	320.4	
23623-31-6	N-[(1S,2R,3E,5E,7S,9E,11E,13S,15R,19R)-7,13-Dihydroxy-1,4,10,19-tetramethyl-17,18-dioxo-16-oxabicyclo[13.2.2]nonadeca-3,5,9,11-tetraen-2-yl]-2-oxopropanamide	479.15	
23627-24-9	N-(2,4,5-Trichlorophenyl)acetamide	458.15	
2363-23-7	1-(Methylthio)-2,4-dinitrobenzene	399.15	
2363-58-8	Epitiostanol	400.15	
2363-59-9	17β-Acetoxyandrosta-1,4-dien-3-one	423.15	
2363-71-5	Heneicosanoic acid	348.65	
2363-88-4	2,4-Decadienal		337.65
2363-89-5	2-Octenal		356.15
2363-99-7	4-[[4-(Diethylamino)phenyl]imino]-1(4H)-naphthalenone	388.65	
23631-95-0	L-Alanine, N-[(1-[1,1′-biphenyl]-4-yl-1-methylethoxy)carbonyl]-, compd. with N-cyclohexylcyclohexanamine (1:1)	440.65	
2364-44-5	6-Iodothymol	342.15	
2364-54-7	5-Methyl-2-(1-methylethyl)-4-nitrosophenol	448.15	
2364-72-9	Benzenemethanol, α-phenyl-α-[2-(4-pyridinyl)cyclopropyl]-, hydrochloride (1:1)	505.15	
2364-75-2	Emoxipin	442.65	
23640-96-2	(6α,11β)-6,9-Difluoro-11,21-dihydroxy-17-(1-oxobutoxy)pregna-1,4-diene-3,20-dione	467.65	
23641-05-6	(6α,11β)-17,21-Bis(acetyloxy)-6,9-difluoro-11-hydroxypregna-1,4-diene-3,20-dione	554.65	
23642-01-5	Tetrakis[μ-[2-(acetyloxy)benzoato-κO:κO′]]dicopper	528.15	
23642-66-2	Benfluorex hydrochloride	434.65	
23643-76-7	Cyclamine	526.65	
23647-78-1	2-Hydroxybenzoic acid 2-(2-hydroxybenzoyl)hydrazide	590.15	
2365-13-1	Ethanaminium, N,N,N-trimethyl-2-(1-oxopropoxy)-, chloride (1:1)	383.15	
2365-26-6	1-Formylisoquinoline thiosemicarbazone	498.15	
2365-30-2	N-(2-Chloroethyl)-N-nitrosourea	351.15	
2365-40-4	Isopentenyladenine	492.15	
2365-43-7	9H-Purine-6-carboxylic acid	471.15	
2365-44-8	Isatin hydrazone	510.65	
2365-48-2	Methyl thioglycolate		421.15
2365-85-7	3-Amino-4-fluorobenzoic acid	455.65	
23651-95-8	Droxidopa	506.65	
23655-69-8	Butanoic acid, 4,4-[(3,20-dioxopregn-4-ene-14,17-diyl)bis(oxy)]-	448.15	
23659-80-5	2-Ethoxy-1,2-bis(4-methoxyphenyl)ethanone	320.15	
2366-52-1	1-Fluorobutane	139.15	305.65
23669-79-6	5′-O-[Bis(4-methoxyphenyl)phenylmethyl]-2′-deoxyuridine	393.15	
2367-19-3	Benzenediazonium, 4-(phenylamino)-, tetrafluoroborate(1-) (1:1)	420.15	
2367-22-8	3-Fluoro-1,1′-biphenyl	299.65	
2367-80-8	1,3-Dichloro-2,5-difluorobenzene	269.9	
2367-82-0	1,2,3,5-Tetrafluorobenzene	225.15	357.55
23672-07-3	Levosulpiride	459.15	
23674-86-4	Epitopic	465.65	
23676-08-6	Methyl 4-ethoxybenzoate	310.9	533.15
23676-09-7	Ethyl 4-ethoxybenzoate		548.15
23678-44-6	Platinum(1+), triamminechloro-, (SP-4-2)-	330.65	
2368-53-8	2,4-Dichloro-1,3,5-trifluorobenzene	262.65	434.65
23680-31-1	N-tert-Butoxycarbonyl-O-benzylserine	352.15	
23680-84-4	4-Amino-2-chloro-6,7-dimethoxyquinazoline	573.15	
23687-25-4	4-Isoquinolinamine	381.15	
2369-11-1	5-Fluoro-2-nitrobenzenamine	370.15	
2369-12-2	3-Fluoro-5-nitrobenzenamine	388.65	
2369-13-3	3-Fluoro-4-nitrobenzenamine	525.65	
2369-37-1	1,2-Dibromo-4-fluorobenzene	342.15	
23691-27-2	1,1,1,3-Tetrachloro-3-phenylpropane	310.65	
23694-17-9	Benzamide, N-[(1-ethyl-2-pyrrolidinyl)methyl]-5-(ethylsulfonyl)-2-methoxy-, hydrochloride (1:1)	454.65	
23694-81-7	Mepindolol	369.15	
23696-28-8	Olaquindox	482.15	
2370-12-9	2,2-Dimethyl-1-pentanol		438.9
2370-14-1	2,2-Dimethyl-1-octanol		481.15
2370-15-2	2,2-Dimethyl-1-decanol	229.15	
2370-61-8	(±)-o-Tyrosine	521.65	
2370-71-0	Monooctyl maleate	305.4	
2370-88-9	1,3,5,7-Tetramethylcyclotetrasiloxane	208.15	407.65
23702-49-0	5H-Phenanthro[4,5-bcd]pyran-5-one	456.65	
23705-38-6	4-Methyl-N-(2-methylpropyl)benzenesulfonamide	351.15	
23705-41-1	N-(1-Methylpropyl)benzenesulfonamide	348.65	
23708-56-7	6-Undecanol	298.15	501.15
2371-19-9	3-Methyl-2-heptanone		437.15
2371-42-8	2-Methylisoborneol	441.15	
2372-45-4	Sodium butoxide	252.15	
2373-31-1	6-Hydroxy-4-methylcoumarin	516.15	
2373-51-5	Chloromethyl methyl sulfide		378.15
2373-76-4	2-Methylcinnamic acid	448.65	
2373-80-0	3′,4′-Methylenedioxycinnamic acid	516.15	
2373-84-4	5-Ethyl-5-(2-propen-1-yl)-2,4,6(1H,3H,5H)-pyrimidinetrione	402.15	
2373-98-0	3,3′-Dihydroxy-4,4′-diaminobiphenyl	498.15	
2374-05-2	4-Bromo-2,6-dimethylphenol	352.65	
2374-14-3	2,4,6-Trimethyl-2,4,6-tris(3,3,3-trifluoropropyl)cyclotrisiloxane	308.35	
2374-22-3	1,5-Pentanediol, 1,5-dimethanesulfonate	308.65	
23743-26-2	1,2-Bis(dicyclohexylphosphino)ethane	369.65	
23745-86-0	Acetic acid, fluoro-, potassium salt	462.15	
23746-34-1	Carbamodithioic acid, N,N-bis(2-hydroxyethyl)-, potassium salt (1:1)	388.15	
23747-14-0	1,2,3,4,5,6-Hexahydro-1,1,5,5-tetramethyl-7H-2,4a-methanonaphthalen-7-one	327.9	
23747-48-0	5-Methyl-6,7-dihydro-5H-cyclopentapyrazine	395.15	
23749-58-8	7H-Benzimidazo[2,1-a]benz[de]isoquinolin-7-one	462.15	
23754-87-2	Phosphorothioic acid, O,O-dimethyl ester, sodium salt (1:1)	473.15	
23757-24-6	2,3-Dihydro-3,3-dimethyl-4,6-bis(1-methylethyl)-1H-inden-5-ol	372.65	
23757-42-8	Midaflur	431.65	
23761-52-6	N-Cyclohexyl-2-naphthalenamine	441.15	
23764-31-0	N-Propyl-1,3-propanediamine		444.65
23769-39-3	trans-2,4,6-Trimethyl-1,3,5-trithiane	374.15	519.65
23778-34-9	6-Hydroxy-1,2,3,4-tetrahydro-β-carboline	567.15	
23778-52-1	2,5,8,11,14-Pentaoxahexadecan-16-ol		383.15
23779-32-0	Ureidopropyltriethoxysilane	176.15	
23779-95-5	4-Hydroxy-8-(trifluoromethyl)-3-quinolinecarboxylic acid	565.15	
23779-97-7	4-Chloro-8-(trifluoromethyl)quinoline	351.15	
23779-99-9	Floctafenine	452.65	
2378-02-1	Perfluoro-tert-butanol	258.15	318.15
2378-08-7	1,1,1,3,3-Pentachloro-3-fluoro-2-propanone		437.65
2378-86-1	Phosphonium, [(4-methylphenyl)methyl]triphenyl-, bromide (1:1)	540.15	
2378-95-2	1,5-Diethyl N-[4-(methylamino)benzoyl]-L-glutamate	361.65	
23783-42-8	Tetraethylene glycol monomethyl ether		402.15
23786-13-2	Benzeneacetic acid, 4-methyl-, methyl ester	333.4	
2379-18-2	Diazene, 1,2-bis(2,3,5,6-tetrafluorophenyl)-, 1-oxide	325.15	
2379-55-7	2,3-Dimethylquinoxaline	378.15	
2379-90-0	1-Amino-4-hydroxy-2-methoxy-9,10-anthracenedione	498.15	
238-04-0	Naphtho[1,2-k]fluoranthene	485.15	
238-84-6	11H-Benzo[a]fluorene	462.15	672.15
2380-36-1	3,5-Bis(1,1-dimethylethyl)benzenamine	329.15	
2380-63-4	1H-Pyrazolo[3,4-d]pyrimidin-4-amine	627.65	
2380-78-1	Homovanillyl alcohol	314.15	
2380-91-8	1-(4-Hydroxyphenyl)ethanol	405.65	
2380-94-1	1H-Indol-4-ol	373.15	
23800-57-9	1,3,5-Triphenyl-2-pentene-1,5-dione	392.15	
23804-59-3	4-Hydroxy-1-(2-phenylethyl)-4-piperidinecarbonitrile	366.15	
23806-24-8	3-Methyl-2-thiophenecarboxylic acid	417.15	
2381-15-9	10-Methylbenz[a]anthracene	456.45	
2381-16-0	9-Methylbenz[a]anthracene	425.15	
2381-19-3	3-Methylbenzo[c]phenanthrene	326.9	
2381-21-7	1-Methylpyrene	343.65	
2381-31-9	8-Methylbenz[a]anthracene	429.65	
2381-34-2	6-Methylbenzo[c]phenanthrene	353.65	
2381-39-7	6-Methylbenzo[a]pyrene	444.4	
2381-40-0	7,10-Dimethylbenz[c]acridine	425.15	
2381-45-5	(3β)-17-(Acetyloxy)-3-hydroxypregn-5-en-20-one	491.65	
23811-08-7	Hinesol	332.65	
23815-63-6	S-(2,4-Dinitrophenyl)cysteine	419.15	
2382-43-6	(2-Hydroxypropyl)trimethylammonium chloride	438.15	
2382-66-3	Cytidylyl-(3′→5′)-adenosine	447.15	
2382-79-8	N-Acetyl-L-tryptophanamide	466.65	
2382-80-1	N-Acetyl-L-tryptophan ethyl ester	379.15	
2382-96-9	2-Mercaptobenzoxazole	469.15	
23822-43-7	N-[4-(4-Chlorophenoxy)phenyl]urea	435.65	
23825-35-6	N,N-Bis(phenylmethyl)benzamide	385.65	
23826-71-3	(4-Methoxyphenyl)-3-pyridinylmethanone	372.4	
23828-92-4	Ambroxol hydrochloride	506.9	
23834-14-2	7-Chloro-4-hydrazinylquinoline	493.65	
23838-12-2	Cholesteryl p-nitrobenzoate	458.15	
23838-73-5	N1-Ethyl-1,2-benzenediamine	459.15	
2384-73-8	1-Hepten-3-yne		383.15
2384-90-9	1,2-Heptadiene		378.65
23840-43-9	1-(3-Bromophenoxy)-3-phenoxybenzene	489.15	
23843-64-3	Ureidopropyltrimethoxysilane		494.15
23843-88-1	4-(4-Aminophenoxy)-1,3-benzenediamine	384.65	
23844-24-8	rel-(2R,3R,11bS)-2-(Acetyloxy)-N,N-diethyl-1,3,4,6,7,11b-hexahydro-9,10-dimethoxy-2H-benzo[a]quinolizine-3-carboxamide	402.65	
2385-23-1	2-Methyl-3-phenyl-4(3H)-quinazolinone	420.65	
2385-28-6	1-Butyl-2,3-piperazinedione	385.15	
2385-74-2	(-)-2,3-Dimethyl-1,2,3-butanetricarboxylic acid	436.65	
2385-77-5	(R)-Citronellal		480.15
2385-81-1	Ethyl 4-phenyl-1-[2-[(tetrahydro-2-furanyl)methoxy]ethyl]-4-piperidinecarboxylate	301.15	483.15
2385-85-5	Mirex	758.15	
2385-87-7	[(8β)-9,10-Didehydro-6-methylergolin-8-yl](1-pyrrolidinyl)methanone	454.15	
23850-78-4	2-(2-Methylpropyl)oxirane		385.15
23851-84-5	3-Quinolinecarboxylic acid, 4-hydroxy-8-(trifluoromethyl)-, ethyl ester	489.15	
23856-21-5	1-(Phenylmethyl)-1H-indazol-5-amine	420.65	
23857-51-4	Rhodamine 610 Perchlorate	399.15	
2386-25-6	1-(2,4-Dimethyl-1H-pyrrol-3-yl)ethanone	412.15	
2386-26-7	1H-Pyrrole-2-carboxylic acid, 4-acetyl-3,5-dimethyl-, ethyl ester	416.15	
2386-47-2	Butanesulfonic acid	257.95	420.15
2386-52-9	Silver methanesulfonate	536.15	
2386-57-4	Sodium methanesulfonate	618.15	
2386-60-9	Butanesulfonyl chloride	244.15	363.15
2386-62-1	Aluminum, dibromoethyl-	297.1	
2387-03-3	Pigment Yellow 101	428.15	
2387-18-0	1,4-Bis(chloromethyl)-2-methylbenzene	331.9	
2387-20-4	1-(2-Chloroethyl)-2-imidazolidinone	358.15	
2387-23-7	N,N′-Dicyclohexylurea	502.65	
2387-68-0	Dehydronerolidol		384.15
23873-27-0	4,4′-(1,2-Ethanediyldiimino)bis[4-oxobutanoic acid]	460.65	
23873-81-6	Diphenylglyoxime	513.15	
23873-85-0	14,17-[Propylidenebis(oxy)]pregn-4-ene-3,20-dione	366.65	
23876-13-3	2-Methyl-3-nitrobenzenemethanol	340.15	
2388-12-7	Perlauric acid	324.65	
2388-14-9	1-(1-Methylethenyl)-4-(1-methylethyl)benzene	242.55	493.95
2388-32-1	2-Chloro-4-quinolinecarbonyl chloride	362.15	
23886-71-7	4-Methoxy-4′-methylbenzophenone	365.15	
23887-41-4	Ethyl 4-[1-oxo-3-(3,4,5-trimethoxyphenyl)-2-propen-1-yl]-1-piperazineacetate	369.15	
2389-49-3	N6-[(1,1-Dimethylethoxy)carbonyl]-N2-[(phenylmethoxy)carbonyl]-L-lysine methyl ester	336.15	
23893-84-7	5,6-Dibromohexahydro-1,3-isobenzofurandione	411.15	
23894-12-4	6-Amino-1-naphthalenol	463.75	
239-01-0	Benzo[a]carbazole	501.15	
239-30-5	Benzo[b]naphtho[2,1-d]furan	375.65	
239-35-0	Benzo[b]naphtho[2,1-d]thiophene	462.15	
239-60-1	13H-Dibenzo[a,i]fluorene	515.65	
239-64-5	13H-Dibenzo[a,i]carbazole	489.15	
239-72-5	Dinaphtho[1,2-b:2′,1′-d]thiophene	525.65	
239-85-0	13H-Dibenzo[a,h]fluorene	567.65	
2390-09-2	cis-11-Eicosenoic acid methyl ester	239.15	
2390-22-9	3,3,3-Tris(4-chlorophenyl)-1-(4-methyl-1-piperazinyl)-1-propanone	487.15	
2390-54-7	Thioflavin	484.65	
2390-68-3	Didecyl dimethyl ammonium bromide	345.15	
23903-49-3	Ethyl 5-(acetylamino)-4-cyano-3-methyl-2-thiophenecarboxylate	509.15	
23906-97-0	Phosphonium, tetraoctyl-, bromide (1:1)	315.15	
2391-03-9	(+)-Brompheniramine maleate	406.15	
2391-78-8	Carbamodithioic acid, N,N-diethyl-, compd. with N,N-diethylethanamine (1:1)	357.15	