CAS	name	Tm	Tb
2447-57-6	Sulfadoxine	465.15	
2447-79-2	2,4-Dichlorobenzamide	466.65	
24470-78-8	Isopropyltriphenylphosphonium iodide	468.65	
24471-48-5	2-Pyrenemethanol	442.65	
24472-02-4	1,5,7,11-Tetraoxaspiro[5.5]undecane	406.15	
24472-77-3	Benzeneethanaminium, N,N,N-trimethyl-β-oxo-, bromide (1:1)	479.15	
24476-55-9	1-[(4-Methylphenyl)sulfonyl]-4-phenyl-4-piperidinecarbonitrile	473.65	
2448-68-2	Pipamperone dihydrochloride	398.4	
24483-44-1	N-[2-[(4-Chlorophenyl)methylamino]ethyl]benzamide	375.65	
2449-05-0	1,2-Bis(phenylmethyl) 1,2-diazenedicarboxylate	319.9	
24499-80-7	5,5-Dimethylhexanoic acid	340.4	
2450-55-7	(2E)-2,3-Diphenyl-2-butenedinitrile	434.15	
2450-71-7	Propargylamine		356.15
2451-01-6	Terpin hydrate	389.15	
2451-62-9	Triglycidyl isocyanurate	368.15	
2451-84-5	Dibenzyl adipate	312.15	
2451-86-7	1,3-Propanediol, 1,3-dibenzoate	333.65	
245116-90-9	Lidorestat	450.65	
24512-63-8	Geniposide	436.65	
24513-66-4	(3E)-2,3-Dihydro-3-(phenylmethylene)-4H-1-benzopyran-4-one	384.15	
2452-01-9	Zinc laurate	403.15	
2452-84-8	2,2′-[[4-(2-Phenyldiazenyl)phenyl]imino]bis[ethanol]	407.15	
2452-99-5	1,2-Dimethylcyclopentane	154.05	
24526-64-5	Nomifensine	453.15	
24527-27-3	Spiclomazine	428.15	
2453-00-1	1,3-Dimethylcyclopentane	136.45	363.85
24537-30-2	N-(Hydroxymethyl)hexadecanamide	387.95	
24539-60-4	1-Decyl 1,2-benzenedicarboxylate	328.65	
2454-11-7	Formebolone	483.65	
2454-35-5	1-[3-(Acetyloxy)phenyl]ethanone	317.4	
2454-37-7	3-(1-Hydroxyethyl)aniline	336.65	
2454-39-9	2-Aminobenzenecarbothioamide	394.65	
24544-04-5	2,6-Diisopropylaniline	228.15	530.15
24545-81-1	Umbellulone	420.15	493.15
24549-06-2	2-Ethyl-6-methylaniline	240.15	504.15
2455-04-1	4-Chlorobutanamide	372.65	
2455-14-3	4-[3,5-Bis(1,1-dimethylethyl)-4-oxo-2,5-cyclohexadien-1-ylidene]-2,6-bis(1,1-dimethylethyl)-2,5-cyclohexadien-1-one	513.15	
2455-71-2	1,3-Bis(3-phenoxyphenoxy)benzene	315.95	
24556-64-7	4,5-Dibromosalicylanilide	504.15	
24556-65-8	3,4,5-Tribromosalicylanilide	498.15	
2456-28-2	Decyl ether	289.15	
2456-81-7	4-Pyrrolidinopyridine	328.65	
24560-98-3	Epoxyoleic acid	331.55	
24561-10-2	Piperocaine hydrochloride	446.65	
24564-52-1	Benzenediazonium, 4-(dimethylamino)-, tetrafluoroborate(1-) (1:1)	423.15	
24568-13-6	N-(4-Acetylphenyl)-2,2,2-trifluoroacetamide	434.15	
2457-47-8	3,5-Dichloropyridine	339.15	
2457-76-3	4-Amino-2-chlorobenzoic acid	484.15	
2457-80-9	5′-(Methylthio)adenosine	478.15	
24570-88-5	4-Methyl-N-[(propylamino)carbonyl]benzenesulfonamide	424.65	
24573-34-0	N-Heptyl-2-pyridinamine	318.9	
24579-90-6	Chloro(2-hydroxy-5-nitrophenyl)mercury	453.15	
2458-05-1	Benzothiazolium, 3-methyl-2-(methylthio)-6-nitro-, methyl sulfate (1:1)	510.15	
2458-08-4	12-Ketochenodeoxycholic acid	488.15	
2458-12-0	3-Amino-4-methylbenzoic acid	435.15	
2458-26-6	3-Phenylpyrazole	351.15	
24584-09-6	Dexrazoxane	466.15	
24588-70-3	2-(2-Methoxyphenyl)-1,3-dithiane	400.15	
24588-72-5	2-(4-Methoxyphenyl)-1,3-dithiane	394.15	
24588-76-9	2-(2-Methoxyphenyl)-1,3-dithiolane	337.65	
24589-77-3	Benzoic acid, 4-hydrazinyl-, hydrochloride (1:1)	508.65	
24589-78-4	N-Methyl-N-(trimethylsilyl)trifluoroacetamide		404.65
24589-99-9	Benzoic acid, 3-formyl-4-hydroxy-, methyl ester	352.15	
2459-05-4	Monoethyl fumarate	343.15	
2459-07-6	2-Pyridinecarboxylic acid, methyl ester	291.85	
2459-09-8	Methyl isonicotinate	289.25	481.15
2459-10-1	Trimethyl trimellitate	260.15	467.15
2459-25-8	Methyl 2-naphthoate	350.15	563.15
24593-49-5	(αR)-α-Amino-4-methoxybenzeneacetic acid	422.15	
24593-59-7	L-Histidine, phenylmethyl ester, 4-methylbenzenesulfonate (1:2)	420.65	
24596-19-8	4-Bromo-2,6-dimethylbenzenamine	320.15	
24599-58-4	2,5-Dimethoxytoluene	313.4	489.15
2460-49-3	4,5-Dichloroguaiacol	345.65	
2460-58-4	2-Hydroxy-4-nitrobenzaldehyde	406.65	
2460-59-5	3,5-Dinitrosalicylaldehyde	332.15	
2460-77-7	2,5-Di-tert-butyl-1,4-benzoquinone	425.65	
24600-36-0	Benzamide, N-[3-chloro-2-[[methyl[2-(4-morpholinyl)-2-oxoethyl]amino]methyl]phenyl]-, hydrochloride (1:1)	480.15	
24602-86-6	2,6-Dimethyl-4-tridecylmorpholine		413.15
2461-06-5	1-Propanamine, 3-(2-chloro-9H-thioxanthen-9-ylidene)-N,N-dimethyl-, hydrochloride, (E)-	496.65	
2461-18-9	Dodecyl glycidyl ether	285.2	
2461-42-9	2-[(1-Naphthalenyloxy)methyl]oxirane	368.15	
2461-46-3	2,2′-[[1,1′-Biphenyl]-4,4′-diylbis(oxymethylene)]bis[oxirane]	429.15	
24610-95-5	Dimethyl P-[[(1-oxo-2-propen-1-yl)amino]methyl]phosphonate	418.15	
24619-05-4	3,3′-Dithiobis[6-hydroxybenzoic acid]	509.15	
2462-32-0	L-Phenylalanine, phenylmethyl ester, hydrochloride (1:1)	475.15	
2462-85-3	Methyl 9,12-octadecadienoate	238.15	
2462-94-4	11-Eicosenoic acid	321.15	
24621-73-6	4-Chloro-1H-indole-2-carboxylic acid	532.65	
24622-52-4	Pyrrolidine, 1-[2-(3-methylbutoxy)-2-phenylethyl]-, hydrochloride (1:1)	423.15	
24623-24-3	6-Nitroindanone	345.15	
24623-25-4	4-Nitro-1-indanone	377.65	
24625-03-4	1-Hexadecanaminium, N-(2-hydroxyethyl)-N,N-dimethyl-, chloride (1:1)	477.15	517.15
24629-25-2	(2S,3S)-2-Amino-3-methyl-1-pentanol	308.05	
2463-63-0	2-Heptenal		439.15
2463-84-5	Dicapthon	326.15	
24632-47-1	Nifurpipone	568.45	
2464-33-7	2-(2-Methylphenyl)-1H-isoindole-1,3(2H)-dione	452.65	
2464-37-1	Chlorflurenol	425.15	
24643-97-8	Indenestrol	448.15	
24645-20-3	4-Cyclohexyl-α-methylbenzeneacetic acid	383.7	
2465-32-9	1,3-Diolein	294.9	
2465-56-7	Methylene	408.65	
2465-64-7	1,4-Bis(2-phenoxyethyl)piperazine	361.65	
2465-65-8	O,O-Diethyl phosphorothioate	340.65	
24650-42-8	2,2-Dimethoxy-2-phenylacetophenone	336.65	
24653-75-6	Mercaptoacetone	318.15	
24654-26-0	3-(2-Thienyl)-2-propenamide	425.65	
2466-09-3	Pyrophosphoric acid	334.15	
2466-76-4	1-(1H-Imidazol-1-yl)ethanone	375.15	
2467-02-9	Bis(2-hydroxyphenyl)methane	391.65	
2467-03-0	2,4′-Dihydroxydiphenylmethane	390.65	
2467-16-5	Tricyclohexyl borate	326.15	412.5
24672-84-2	1-(5-Hydroxy-2,2-dimethyl-2H-1-benzopyran-6-yl)ethanone	376.15	
24677-78-9	2,3-Dihydroxybenzaldehyde	381.15	508.15
2468-21-5	(+)-Catharanthine	400.15	
24680-50-0	trans-4-Methoxycinnamaldehyde	363.15	
24683-26-9	4-Hydroxy-2-methyl-2H-1,2-benzothiazine-3-carboxylic acid ethyl ester 1,1-dioxide	411.65	
24686-78-0	1-Benzoyl-4-piperidone	323.65	
24687-31-8	Benzoselenazolium, 3-ethyl-2-[3-(3-ethyl-2(3H)-benzoselenazolylidene)-2-methyl-1-propen-1-yl]-, bromide (1:1)	455.15	
24687-57-8	Silver arachidate	505.45	
2469-34-3	Senegenin	564.15	
2469-45-6	Dodecyl sulfide	313.15	
2469-87-6	Benzamide, N,N′-[(6-phenoxy-1,3,5-triazine-2,4-diyl)bis[imino(9,10-dihydro-9,10-dioxo-5,1-anthracenediyl)]]bis-	647.15	
24691-76-7	Pyracarbolid	383.65	
24691-80-3	Fenfuram	382.65	
24694-40-4	1H-Benzotriazole, sulfate (1:1)	438.15	
2470-68-0	Diheptylamine	304.65	544.15
2470-73-7	Dixyrazine	465.15	
24700-85-4	3,4-Dihydro-2,2-dimethyl-4-(1-methylethyl)-7-octyl-2H-1-benzopyran-6-ol	354.9	
247016-69-9	6-[[2-[[2-[(2S)-2-Cyano-1-pyrrolidinyl]-2-oxoethyl]amino]ethyl]amino]-3-pyridinecarbonitrile	440.15	
24702-30-5	4-Methyl-N-[phenyl(phenylmethyl)-λ4-sulfanylidene]benzenesulfonamide	420.65	
24706-50-1	3-(Phenylamino)-2-cyclohexen-1-one	446.65	
2471-70-7	6-Methoxy-2-naphthoic acid	482.15	
24716-09-4	α-Butylbenzeneacetic acid	372.15	
2472-22-2	6-Methoxy-2-tetralone	307.65	
24723-77-1	2-Methoxyadenosine	466.15	
24727-23-9	(T-4)-Diiodobis(4-methoxyphenyl)tellurium	440.65	
2473-01-0	1-Chlorononane	233.75	476.65
24730-10-7	Dihydroergocristine methanesulfonate	483.15	
24731-73-5	N,N′-1,4-Phenylenebis[3-oxobutanamide]	628.15	
2474-02-4	1,7-Dichlorooctamethyltetrasiloxane	211.15	495.15
24748-23-0	3,6,9-Triethyl-3,6,9-trimethyl-1,2,4,5,7,8-hexoxonane	304.15	
2475-44-7	Disperse Blue 14	493.15	
2475-45-8	Disperse Blue 1	605.15	
2475-46-9	C.I. Disperse Blue 3	460.15	
2475-92-5	1-(4-Methoxyphenyl)ethanone oxime	359.65	
24755-74-6	10,11-Dihydro-5-(2-propen-1-yl)-5H-dibenzo[a,d]cyclohepten-5-ol	314.15	
24758-49-4	4-Morpholinobenzophenone	410.65	
2476-37-1	1-(2,5-Dichlorophenyl)ethanone	285.15	
24765-53-5	2-Methyl-2-phenyl-1,3-propanediol	361.15	
2477-61-4	17-Hydroxypregna-1,4-diene-3,20-dione	506.15	
2477-73-8	(6α)-17-(Acetyloxy)-6-chloropregn-4-ene-3,20-dione	465.15	
24771-25-3	Carbonimidic acid, N-cyano-, dimethyl ester	330.15	388.15
24774-58-1	2,5-Dibromohexane	312.4	481.15
24775-57-3	N-1-Naphthalenyl-N′-phenylthiourea	435.65	
2478-38-8	Acetosyringone	390.15	
2478-67-3	1-Amino-2-chloro-4-hydroxy-9,10-anthracenedione	506.65	
24786-78-5	Thiocyanic acid, compd. with hydrazine (1:1)	352.15	
24789-99-9	2-[4-(Diethylamino)phenyl]-1,1,2-ethenetricarbonitrile	437.15	
2479-46-1	1,3-Bis(4-aminophenoxy)benzene	388.15	
2479-47-2	4,4′-(1-Methylethylidene)bis[benzenamine]	402.05	
2479-49-4	Benzophenonetetracarboxylic acid	497.15	
2479-64-3	2,3-Dihydro-2-phenyl-1H-1,3,2-benzodiazaborole	478.15	
24793-77-9	3,5,7-Triaza-1-azoniatricyclo[3.3.1.13,7]decane, 1-[[2-(chloromethyl)phenyl]methyl]-, chloride (1:1)	445.65	
24794-44-3	1,3-Propanediol, 2,2-bis[[(aminocarbonyl)oxy]methyl]-, 1,3-dicarbamate	520.65	
24794-58-9	Formic acid, compd. with 2,2′,2′′-nitrilotris[ethanol] (1:1)	340.75	
247940-06-3	2-(Dicyclohexylphosphino)biphenyl	348.05	
24796-94-9	Phenoxazin-5-ium, 3,7-bis(diethylamino)-, perchlorate (1:1)	502.15	
248-93-1	13H-Indeno[1,2-b]anthracene	590.15	
2480-23-1	N-Methyl-L-valine	563.15	
24800-44-0	Tripropylene glycol		544.15
24807-55-4	3-Nitro-1,2,4-triazole	483.15	
24808-87-5	21-(3-Carboxy-1-oxopropoxy)-17-hydroxypregna-1,4-diene-3,11,20-trione	485.65	
2481-94-9	Solvent Yellow 56	370.65	
24812-82-6	2,2′-[(3-Nitrophenyl)imino]bis[ethanol]	374.15	
24812-90-6	Benzoic acid, 3-amino-4-methoxy-, methyl ester	357.15	
24813-13-6	N,N-Bis(2-chloroethyl)-3-nitrobenzenamine	385.65	
24813-26-1	N-(Tricyclo[3.3.1.13,7]dec-1-ylmethyl)-3-pyridinecarboxamide	384.65	
24815-24-5	Rescinnamine	511.65	
2482-25-9	4-Hydroxyhippuric acid	513.15	
2482-80-6	Ethymidine	367.65	
24824-27-9	2,7-Dinitronaphthalene	507.15	
24824-36-0	1,3-Diethyl 2-(diphenylmethylene)propanedioate	348.15	
24827-78-9	N,N′-Diethyl-N′-(4-nitrophenyl)-N-phenylurea	316.15	
24828-38-4	1,4-Benzenediamine, N4,N4-diethyl-2-methyl-, hydrochloride (1:?)	498.15	
2483-49-0	N-[(1,1-Dimethylethoxy)carbonyl]-L-alanine 4-nitrophenyl ester	351.15	
24830-94-2	D-Allothreonine	545.4	
24833-47-4	2-Benzoyl-N-(2-hydroxyethyl)-N-methylbenzamide	378.15	
2484-30-2	6-Dehydrotestosterone	483.15	
24850-33-7	Allyltributyltin	407.65	
24853-83-6	3,4-Dihydro-1-(phenylmethyl)isoquinoline	448.15	
24854-43-1	4-Methyl-4H-1,2,4-triazole-3-thiol	437.15	
24855-58-1	4-Hydroxy-3-nitrobenzenesulfonamide	477.9	
24856-80-2	Phosphoric acid, diethyl ester, ammonium salt	375.15	
24857-20-3	2,6-Dichloroindophenyl acetate	375.15	
2486-02-4	Isoamyl gallate	418.65	
2486-07-9	2,4-Dinitro-1-phenoxybenzene	344.15	
2486-13-7	2,4-Dinitro-1-(2-phenylethenyl)benzene	413.15	
2486-70-6	4-Amino-3-methylbenzoic acid	442.65	
2486-71-7	4-Amino-3-chlorobenzoic acid	499.4	
2486-75-1	4-Amino-2-methylbenzoic acid	434.15	
2486-79-5	4-Amino-2-propoxybenzoic acid	453.65	
2486-80-8	4-Amino-2-methoxybenzoic acid	490.65	
2486-85-3	1-Dodecanamine, N-dodecyl-, hydrochloride (1:1)	480.65	
24860-40-0	6-(1-Methylethoxy)-1,3,5-triazine-2,4-diamine	445.15	
24864-19-5	4-[1,1′-Biphenyl]-4-yl-2-methylthiazole	388.65	
24867-19-4	5-Ethyl-2,4,6-pyrimidinetriamine	463.15	
24869-41-8	Pregn-4-ene-3,20-dione, 21-(2,2-dimethyl-1-oxopropoxy)-11,17-dihydroxy-, (11β)-	523.15	
2487-01-6	Medinoterb acetate	359.65	
2487-63-0	Quinbolone	407.15	
2487-90-3	Trimethoxysilane	158.15	359.65
2488-01-9	1,4-Bis(dimethylsilyl)benzene	388.15	
2488-95-1	2,2′-(1,2-Hydrazinediyl)bis[ethanol]	332.15	444.15
24887-75-0	Androstane	433.15	
24889-92-7	2-[(4-Chlorophenyl)amino]acetonitrile	328.15	
24889-95-0	2-[(4-Methoxyphenyl)amino]acetonitrile	338.15	
2489-13-6	Glycyl-L-histidine	415.65	
2489-77-2	Trimethylthiourea	360.65	
2489-86-3	1-(2-Propen-1-yl)naphthalene		539.15
2490-93-9	Phosphorothioic acid, O-[3-chloro-4-[(dimethylamino)sulfonyl]phenyl] O,O-dimethyl ester	334.15	
2490-97-3	Aceglutamide	470.15	
24900-79-6	4-Amino-2,4′-dichlorodiphenyl ether	346.15	
24903-95-5	Nopinone		368.15
24905-87-1	HC Red 7	371.15	
24909-68-0	Linoleic anhydride	271.15	
24909-72-6	Oleic anhydride	295.35	
2491-06-7	Dimethylglycine hydrochloride	462.65	
2491-15-8	Formylglycine	364.15	
2491-17-0	1-Cyclohexyl-3-(2-morpholinoethyl)carbodiimide metho-p-toluenesulfonate	387.15	
2491-18-1	L-Methionine, methyl ester, hydrochloride	433.15	
2491-20-5	Alanine methyl ester hydrochloride	381.15	
2491-32-9	1-(4-Hydroxyphenyl)-2-phenylethanone	424.15	
2491-36-3	2-Bromo-1-(2-hydroxyphenyl)ethanone	343.65	
2491-38-5	2-Bromo-1-(4-hydroxyphenyl)ethanone	403.15	
2491-52-3	1-(4-Nitrophenyl)-2-phenyldiazene	406.15	
2491-74-9	N,N-Dimethyl-4-[2-(4-nitrophenyl)diazenyl]benzenamine	509.15	
2491-90-9	2,5-Bis(4-chlorophenyl)-1,3,4-oxadiazole	523.65	
2491-91-0	2,5-Bis(4-methylphenyl)-1,3,4-oxadiazole	447.65	
2491-96-5	2,5-Bis(2-hydroxyphenyl)-1,3,4-oxadiazole	476.9	
24910-63-2	3,4-Dimethyl-2-pentene	148.95	362.15
24915-04-6	(7S,7aS,14S,14aS)-Dodecahydro-7,14-methano-2H,6H-dipyrido[1,2-a:1′,2′-e][1,5]diazocine	303.65	
24916-50-5	Spiramycin I	408.65	
24916-51-6	Spiramycin II	404.65	
24916-52-7	Spiramycin III	402.65	
24916-90-3	Dexamethasone 9,11-epoxide	511.9	
2492-09-3	Sarracine	322.15	
2492-23-1	Phosphonium, [(2,4-dichlorophenyl)methyl]triphenyl-, chloride (1:1)	520.65	
2492-30-0	Acetophenone semicarbazone	476.15	
2492-87-7	p-Nitrophenyl β-D-glucopyranoside	439.65	
24929-02-0	1-Amino-9,10-dihydro-4-hydroxy-9,10-dioxo-2-anthracenesulfonic acid	528.9	
249296-44-4	Varenicline	411.65	
2493-02-9	4-Bromophenyl isocyanate	312.15	499.15
2493-04-1	5-Nitrofurfuryl alcohol	304.15	
2493-31-4	N,N-Dimethyl-2,4,6-trinitroaniline	411.15	
2493-84-7	Octyloxybenzoic acid	374.05	
24936-38-7	Poly(A)-poly(U)	325.75	
24936-68-3	Bisphenol A polycarbonate, SRU	516.15	
24937-16-4	Poly[imino(1-oxo-1,12-dodecanediyl)]	451.15	
24937-72-2	Maleic anhydride homopolymer	588.15	
24937-74-4	Formaldehyde, polymer with benzenamine and phenol	330.65	
24937-78-8	Ethylene-vinyl acetate copolymer	372.15	
24937-79-9	Poly(vinylidene fluoride)	435.65	
24938-04-3	Ethylene glycol-isophthalic acid-terephthalic acid copolymer	483.15	
24938-37-2	Adipic acid-ethylene glycol copolymer	321.15	
24938-55-4	Poly(thiomethylene)	504.15	
24938-60-1	Isophthalic acid-m-phenylenediamine copolymer, SRU	696.15	
24938-64-5	p-Phenylenediamine-terephthalic acid copolymer, SRU	823.85	
24939-16-0	Bis(4-hydroxycinnamoyl)methane	492.15	
2494-56-6	Butyrylcholine iodide	362.65	
2494-79-3	4-Chloro-3-(chlorosulfonyl)benzoic acid	444.15	343.15
2495-27-4	Hexadecyl methacrylate		463.65
2495-32-1	4,4-Dimethyl-3-methylene-1-pentene	377.65	373.65
2495-35-4	Benzyl acrylate	488.15	
2495-37-6	Benzyl methacrylate		369.65
2495-39-8	Sodium allylsulfonate	515.15	
24954-60-7	N-[2-(4-Nitrophenyl)ethyl]methanesulfonamide	393.65	
2496-25-5	4-[2-(4-Methoxyphenyl)diazenyl]phenol	415.65	
2496-26-6	4-[2-(4-Ethoxyphenyl)diazenyl]phenol	400.15	
24961-39-5	7-(Bromomethyl)benz[a]anthracene	470.65	
24962-75-2	3-Amino-4-hydroxy-N,N-dimethylbenzenesulfonamide	431.15	
24963-28-8	3-Acetyl-2(3H)-benzoxazolone	368.15	
24964-64-5	3-Cyanobenzaldehyde	349.65	483.15
24966-39-0	2,6-Dichlorobenzenethiol	440.15	
24968-11-4	Poly(ethylene 2,6-naphthalate)	539.65	
24968-12-5	Poly(butylene terephthalate)	498.15	
24968-79-4	Acrylonitrile-methyl acrylate copolymer	417.65	
24969-06-0	Poly(epichlorohydrin)	390.65	
24969-11-7	Formaldehyde-resorcinol copolymer	383.15	
24969-25-3	1,3,5-Trioxane, polymer with oxirane	439.15	
24969-26-4	1,3,5-Trioxane, polymer with 1,3-dioxolane	439.15	
2497-02-1	N-Acetyl-L-histidine	437.65	
2497-18-9	trans-2-Hexenyl acetate		439.15
2497-21-4	4-Hexen-3-one		411.65
2497-38-3	4-[(4-Hydroxyphenyl)azo]benzoic acid	539.15	
2497-91-8	2-Chloro-3,5-dinitrobenzoic acid	328.15	
24973-25-9	2,5-Dimethoxyamphetamine hydrochloride	390.65	
24973-59-9	2,4,6-Tri-tert-butylnitrosobenzene	440.65	
24974-73-0	3-Chlorobenzylsulfonyl chloride	345.65	
24979-70-2	Poly(4-vinylphenol)	443.15	
24979-97-3	Poly(tetrahydrofuran)	311.45	
2498-02-4	2-[2-[Ethyl(3-methylphenyl)amino]ethyl]-1H-isoindole-1,3(2H)-dione	359.65	
2498-03-5	1-[2-[Ethyl(3-methylphenyl)amino]ethyl]-2,5-pyrrolidinedione	355.15	
2498-24-0	Cyclohexanamine, N,N-dimethyl-, hydrochloride (1:1)	498.15	
2498-27-3	Benzenaminium, 3-hydroxy-N,N,N-trimethyl-, iodide (1:1)	469.15	
2498-47-7	Guanidine, N-cyclohexyl-, hydrochloride (1:1)	498.15	
2498-66-0	Benz[a]anthracene-7,12-dione	443.15	
2498-75-1	3-Methylbenz[a]anthracene	429.65	
2498-76-2	2-Methylbenz[a]anthracene	423.65	
2498-77-3	1-Methylbenz[a]anthracene	412	
24980-41-4	Polycaprolactone	348.15	
24980-62-9	Acrylonitrile-vinyl acetate copolymer	430.15	
24980-67-4	Trifluoroethylene polymer	486.15	
24981-14-4	Poly(vinyl fluoride)	473.15	
24985-85-1	Ethyl 5-hydroxy-1H-indole-2-carboxylate	420.15	
2499-95-8	Hexyl acrylate	228.15	313.15
24991-43-3	1,3-Butadiene, polymer with 1-propene	405.15	
24991-55-7	Polyethylene glycol dimethyl ether	326.15	
24993-04-2	Nylon 6/66	482.15	
24994-04-5	5-(4-Methylphenyl)-2H-tetrazole	521.15	
2500-59-6	Methyl 9,10-epoxyoctadecanoate	288.9	
2500-88-1	Dioctadecyl disulfide	333.15	
25006-60-4	Acetic acid, 2,2-dichloro-, 1-methylethyl ester		436.65
25007-79-8	2,4-Diamino-6-(2-pyridyl)-1,3,5-triazine	570.65	
2501-94-2	tert-Butylphosphine	188.15	327.65
25013-15-4	Vinyltoluene	196.15	441.15
25013-16-5	tert-Butylhydroxyanisole	324.65	
25014-31-7	Poly(α-methylstyrene)	473.15	
25014-41-9	Polyacrylonitrile	623.15	
25016-01-7	5-Bromo-2-methoxybenzaldehyde	387.65	
25016-02-8	2-Methoxy-5-nitrobenzaldehyde	362.15	
25017-08-7	1-(4-Chlorophenyl)-1-pentanone	439.65	
25017-27-0	N-(3-Phenylpropyl)urea	412.15	
25017-49-6	N-[2-(3,4,5-Trimethoxyphenyl)ethyl]urea	416.15	
25021-08-3	2,5-Dihydro-2,5-dioxo-1H-pyrrole-1-acetic acid	387.15	
25023-01-2	9,9-Dichlorofluorene	372.15	
25025-59-6	Ethanaminium, 2-(acetylthio)-N,N,N-trimethyl-, bromide (1:1)	500.15	
25026-97-5	2-Amino-5-nitrobenzenecarbothioamide	438.65	
25027-40-1	1-Chloro-2-(ethylsulfonyl)ethane	292.95	
25027-52-5	1-Piperidinepropanoic acid, α-methyl-, methyl ester, hydrochloride (1:1)	429.15	
25029-11-2	trans-1,4-Bis(2-isothiocyanatoethyl)cyclohexane	325.65	
2503-55-1	N-Benzylnicotinamide	345.65	
2503-56-2	4-Hydroxy-6-methyl-1,3,3a,7-tetraazaindene	501.15	
25035-04-5	11-Aminoundecanoic acid homopolymer, SRU	459.15	
25035-71-6	Formaldehyde-p-toluenesulfonamide copolymer	355.15	
25035-78-3	ISO-DAP	306.15	
25035-81-8	2-Propenoic acid, 2-methyl-, polymer with ethenylbenzene and methyl 2-methyl-2-propenoate	411.65	
25036-16-2	Butyl acrylate-methacrylic acid-styrene copolymer	351.15	
25037-32-5	Ethylene glycol-sebacic acid copolymer	347.95	
25037-45-0	Bisphenol A-carbonic acid copolymer	470.85	
25037-58-5	Propiolactone homopolymer	341.15	
25037-66-5	1,3-Isobenzofurandione, polymer with 2,5-furandione and 1,2-propanediol	318.15	
25038-32-8	Isoprene-styrene copolymer	368.15	
25038-36-2	Ethylene-ethylidenenorbornene-propene copolymer	320.15	
25038-37-3	Ethylene-1,4-hexadiene-propylene copolymer	361.35	
25038-44-2	Poly(1-butene-1,4-diyl)	322.65	
25038-54-4	Nylon 6	287.65	
25038-59-9	Poly(ethylene terephthalate)	513.15	
25038-71-5	Ethylene-tetrafluoroethylene copolymer	563.15	
25038-74-8	Laurolactam homopolymer	449.15	
25038-76-0	Polynorbornene	539.65	
25038-78-2	Dicyclopentadiene homopolymer	440.15	
25038-91-9	1,4-Cyclohexanedimethanol-ethylene glycol-terephthalic acid copolymer	516.15	
2504-18-9	N,2-Dimethyl-N-nitroso-2-propanamine	295.65	
2504-55-4	3′-Amino-3′-deoxyadenosine	533.65	
2504-64-5	1,1′-(1,2-Ethanediyl)bis[1,1,1-trichlorosilane]	297.65	474.15
25044-01-3	2-Methyl-1-penten-3-one	203.65	391.65
25046-79-1	Glisoxepide	462.15	
25052-62-4	Carbon monoxide-ethylene copolymer	533.15	
25052-77-1	Diethylene glycol-ethylene glycol-terephthalic acid copolymer	525.15	
25053-15-0	Diallyl phthalate resin	368.15	
25053-53-6	Ethylene-methacrylic acid copolymer	372.15	
25053-96-7	o-Cresol-formaldehyde copolymer	383.15	
25054-06-2	Cyclohexanone-formaldehyde copolymer	378.15	
25057-89-0	Bentazon	413.35	
25059-80-7	Benazolin-ethyl	352.35	
2506-10-7	1-Methyl-1,2,3,4-tetrahydro-β-carboline	452.65	