CAS	name	Tm	Tb
3393-96-2	N-(4-Nitrophenyl)benzamide	470.65	
33933-77-6	7-Methyl-4-octanol		458.15
3394-04-5	N-2-Naphthalenylthiourea	467.15	
33941-15-0	Aza-18-crown-6	321.15	
33942-49-3	2-[(Aminothioxomethyl)amino]benzoic acid	454.15	
33942-93-7	9-Methylbenz[c]acridine	504.15	
3395-35-5	3,4-Dehydroproline	509.65	
33953-73-0	6-Hydroxybenzo[a]pyrene	481.15	
339530-91-5	3-[(4-Fluorophenyl)thio]-2-hydroxy-2-methylpropanoic acid	344.05	
33955-27-0	(3R,4S,5R,6S,7S,9S,11R,12S,13S,14R)-12-(Acetyloxy)-6-[(4,6-dideoxy-3-O-methyl-β-D-xylo-hexopyranosyl)oxy]-4-[(2,6-dideoxy-3-C-methyl-3-O-methyl-α-L-xylo-hexopyranosyl)oxy]-9-hydroxy-14-[(1S,2S)-2-hydroxy-1-methylpropyl]-3,5,7,9,11,13-hexamethyloxacyclotetradecane-2,10-dione	387.65	
33956-49-9	Codlemone	305.15	388.15
3396-11-0	Cesium acetate	465.65	
3396-17-6	1,2-Dicyanocyclobutane	320.65	
3396-99-4	Methyl α-D-galactopyranoside	387.65	
33963-94-9	2,4,5,7-Tetranitro-9(10H)-acridinone	610.15	
33964-82-8	Cyclohexanecarboxylic acid, 5-(1,1-dimethylethyl)-2-hydroxy-, (1α,2β,5α)-	419.9	
3397-16-8	N-Stearoyl-L-glutamic acid	386.4	
3397-32-8	N-Carbobenzyloxy-L-phenylalanyl N-hydroxysuccinimide ester	413.4	
3397-33-9	1,2-Pyrrolidinedicarboxylic acid, 2-(2,5-dioxo-1-pyrrolidinyl) 1-(phenylmethyl) ester, (2S)-	363.15	
3397-35-1	N-[(Phenylmethoxy)carbonyl]-L-leucine 2,5-dioxo-1-pyrrolidinyl ester	389.65	
3397-54-4	N-(Tetrahydro-2,5-dioxo-3-furanyl)acetamide	416.65	
3397-65-7	N-Lauroyl-L-glutamic acid	368.65	
33974-27-5	α-Phenyl-4-pyridinemethanol	397.15	
33976-39-5	1,2-Bis(ethylsulfonyl)ethane	410.15	
33976-43-1	(p-Aminophenyl)trimethoxysilane	334.15	
33979-03-2	PCB 155	438.15	