CAS	name	Tm	Tb
284461-73-0	Sorafenib	488.15	
284464-83-1	N-[[(1,1-Dimethylethyl)amino]carbonyl]-2-[(4-methylphenyl)amino]-5-nitrobenzenesulfonamide	399.65	
28447-20-3	3-Ethenylbenzoic acid	369.15	
284493-59-0	β-[[(1,1-Dimethylethoxy)carbonyl]amino]-3-fluorobenzenepropanoic acid	386	
284493-67-0	3-Chloro-β-[[(1,1-dimethylethoxy)carbonyl]amino]benzenepropanoic acid	372.75	
2845-79-6	Benzoic acid, 2-(aminocarbonyl)hydrazide	488.15	
2845-82-1	2-(4-Pyridyl)-1,3,4-oxadiazol-5-one	548.15	
2845-89-8	3-Chloroanisole		466.65
2846-04-0	1,3-Distearoyl-2-oleoylglycerol	315.15	
2846-29-9	Cholesterol 7α-hydroperoxide	427.15	
2846-89-1	5,6-Diamino-4(3H)-pyrimidinethione	530.15	
2846-96-0	6-(4-Morpholinyl)-9H-purine	573.65	
28462-19-3	Ethanol, 2-[ethyl(3-methylphenyl)amino]-, 1-acetate	407.15	
28466-21-9	1,3,5-Trimethyl-1H-pyrazol-4-amine	377.15	
28466-26-4	1H-Pyrazol-4-amine	354.15	
28467-92-7	2-(Phenylmethylene)butanal	309.15	
28469-92-3	2,6-Dichlorostyrene	362.15	
2847-00-9	1,2:5,6-Bis-O-(1-methylethylidene)-α-D-ribo-hexofuranos-3-ulose	311.65	
2847-14-5	N1,N2-Bis(2-pyridinylmethylene)-1,2-ethanediamine	337.9	
2847-16-7	Decanoic acid, cadmium salt (2:1)	371.15	
28473-21-4	Nonanol		486.15
28476-83-7	2-Butenedioic acid (2Z)-, 1,4-dibutyl ester, polymer with chloroethene	463.15	
28478-48-0	Benzamide, 5-chloro-N-[(1-ethyl-2-pyrrolidinyl)methyl]-4-hydroxy-2-methoxy-, hydrochloride (1:1)	480.65	
2848-94-4	N-(2-Benzoyl-4-chlorophenyl)-2-bromo-N-methylacetamide	368.65	
2848-96-6	Lorazepam acetate	517.15	
28484-49-3	5-(4-Bromobutyl)-2,4-imidazolidinedione	403.15	
28485-17-8	Ethyl 1,2,3,4-tetrahydro-2,4-dioxo-5-pyrimidinecarboxylate	509.65	
28489-52-3	3-Methyl-2,6-diphenylpyridine	357.65	
2849-81-2	N-(1,1-Dimethylethyl)-4-methylbenzenesulfonamide	385.65	
285-67-6	Cyclopentene, oxide	409.65	375.15
285-69-8	3,6-Dioxabicyclo[3.1.0]hexane		416.65
2850-19-3	Acetic acid, 2-[(4-methylphenyl)sulfonyl]-, ethyl ester	304.65	
2850-41-1	3,9-Dihydro-1,3-dimethyl-8-propyl-1H-purine-2,6-dione	529.15	
2850-44-4	Ethanol, 2-[2-[4-[(4-chlorophenyl)-2-pyridinylmethyl]-1-piperazinyl]ethoxy]-, hydrochloride (1:1)	448.65	
2850-61-5	Arsinic acid, dibutyl-	410.65	
28507-96-2	rel-(2R,3S)-1,2,3,4-Tetrachlorobutane	345.15	
2851-08-3	2-(1-Piperidinyl)benzothiazole	368.65	
2851-09-4	2-(1-Piperidinyl)benzoxazole	343.65	
2851-13-0	N,N-Dimethyl-1H-benzimidazol-2-amine	529.65	
2851-94-7	1-Ethenyl-2-phenyl-1H-imidazole		415.65
28516-43-0	Ethylene-methacrylic acid copolymer zinc salt	437.75	
28519-04-2	2(or 5)-Hydroxy-5(or 2)-methylbenzenesulfonic acid	352.15	
28523-86-6	Sevoflurane		331.65
28535-81-1	Methyl (3α,5β,7α)-3,7-bis(acetyloxy)-12-oxocholan-24-oate	451.15	
2854-09-3	1-(2-Hydroxyethyl)-5-nitro-1H-pyrrole-2-carboxamide	448.65	
2854-16-2	1-Amino-2-methyl-2-propanol		423.4
2854-32-2	2-[1-(4-Chlorobenzoyl)-5-methoxy-2-methyl-1H-indol-3-yl]-1-(4-morpholinyl)ethanone	435.9	
28547-23-1	4-(Benzoyloxy)benzoic acid	493.15	
28548-57-4	N-Hydroxy-4-nitroso-N-phenylbenzenamine	410.65	
2855-08-5	1-Chloro-3,3-dimethylbutane		388.15
2855-13-2	Isophorone diamine	283.15	520.15
28553-12-0	Diisononyl phthalate	230.15	521.15
2856-63-5	(2-Chlorophenyl)acetonitrile	297.15	524.15
2856-75-9	Pyrazine, 2-methyl-3-(1-piperidinyl)-, sulfate (1:1)	404.65	
28562-70-1	Furcarbanil	368.65	
28567-53-5	N-(2-Ethylhexyl)-D-gluconamide	390.65	
2857-83-2	Pregnan-20-one, 3-(acetyloxy)-5,6-epoxy-17-hydroxy-16-methyl-, (3β,5α,6α,16α)-	468.65	
2857-97-8	Bromotrimethylsilane	229.15	353.15
28575-17-9	ar,ar′-Diethyl-1,1′-biphenyl		577.65
2858-66-4	1-(2R)-2-Piperidinyl-2-propanone	491.65	468.15
28583-62-2	N-[3-Hydroxy-4-(1-oxobutyl)phenyl]acetamide	358.15	
2859-16-7	Codeine methyl ether	410.15	
2859-67-8	3-Pyridinepropanol		557.15
2859-68-9	2-Pyridinepropanol	307.15	533.35
2859-78-1	Bromoveratrole	396.15	527.65
28591-01-7	F-Gitonin	526.65	
285977-85-7	2,3-Dihydro-2,5-dimethyl-1H-indene-2-methanol	316.15	
285983-48-4	Doramapimod	415.65	
285996-74-9	1-[[(9H-Fluoren-9-ylmethoxy)carbonyl]amino]-4-oxocyclohexanecarboxylic acid	430.15	
286-08-8	Bicyclo[4.1.0]heptane		389.65
286-16-8	2-Oxabicyclo[4.1.0]heptane		394.15
286-20-4	Cyclohexene oxide		402.65
286-62-4	Cyclooctene oxide	318.15	462.65
28605-74-5	Tetrachlorodifluoroethane	315.15	361.65
28608-75-5	Orientin	556.15	
2861-28-1	1,3-Benzodioxole-5-acetic acid	401.15	
28610-84-6	Rimazolium metilsulfate	438.65	
28611-39-4	4-(Dimethylamino)phenylboronic acid	517.15	
2862-16-0	7-Deazainosine	513.15	
2862-39-7	(2-Bromoethyl)dimethylamine hydrobromide	461.85	
2862-51-3	Cyclo(phenylalanylphenylalanine)	588.65	
28626-76-8	Androst-4-en-3-one, 17-hydroxy-4,17-dimethyl-, (17β)-	414.65	
2863-88-9	3-Ethoxyestra-3,5-dien-17-one	415.15	
28630-26-4	Formaldehyde, polymer with benzenamine and 2,5-furandione	355.15	
28631-35-8	Dichlorprop-isoctyl	236.15	
28633-58-1	1H-Indolizinium, 1-[3-(2,3-diphenyl-1-indolizinyl)-2-propen-1-ylidene]-2,3-diphenyl-, bromide (1:1)	486.15	
28634-38-0	1,4,5,8-Tetrakis(cyclohexylamino)-9,10-anthracenedione	475.65	
2865-19-2	Dibutyltin diiodide		418.15
2865-70-5	10-Chloro-10H-phenoxarsine	409.15	
28652-72-4	Methylbiphenyl		528.45
28657-39-8	3-Chloro-4-methyl-6-phenylpyridazine	414.15	
28657-75-2	1-(6-Amino-1,3-benzodioxol-5-yl)ethanone	443.65	
28657-79-6	1-Ethyl-1,4-dihydro-4-oxo[1,3]dioxolo[4,5-g]cinnoline-3-carbonitrile	535.15	
28657-80-9	Cinoxacin	534.15	
2866-43-5	2,5-Bis(2-benzoxazolyl)thiophene	492.15	
2866-82-2	N-(4-Chlorophenyl)benzamide	468.15	
2867-05-2	α-Thujene		424.15
2867-20-1	DL-Alanyl-DL-alanine	538.15	
2867-47-2	(Dimethylamino)ethyl methacrylate	243.15	459.15
2867-59-6	3-Amino-1-butanol	433.15	
2867-93-8	(3α,5R,6β)-6-Methoxy-3,5-cyclocholestane	352.65	
28677-00-1	Perfluorodimethylcyclobutane		313.65
2868-37-3	Methyl cyclopropanecarboxylate		388.05
2868-48-6	Methyl (3α,5β,6α)-3,6-dihydroxycholan-24-oate	359.15	
28683-81-0	6-Chloro-2-(2-hydroxyphenyl)-4(3H)-quinazolinone	607.65	
28689-08-9	1,5-Dichloro-2,3-dinitrobenzene	371.15	
28689-19-2	2,2′-(1,4-Phenylene)bis[1H-benzimidazol-5-amine]	523.15	
2869-25-2	2,2′-Iminobis[propanenitrile]	341.15	
2869-34-3	Tridecanamine	300.55	548.95
286930-03-8	Fesoterodine fumarate	376.65	
28697-53-2	D-Arabinopyranose	484.65	
287-23-0	Cyclobutane	193.15	286.23
287-27-4	Thietane	199.95	368.15
287-29-6	Silacyclobutane		316.15
287-53-6	1,3-Dithietane	378.65	
287-92-3	Cyclopentane	179.25	322.35
2870-04-4	1,3-Dimethyl-2-ethylbenzene	256.95	463.15
2870-37-3	Benzoselenazolium, 3-ethyl-2-methyl-, iodide (1:1)	483.65	
2870-38-4	Benzoselenazolium, 3-ethyl-5-methoxy-2-methyl-, iodide (1:1)	477.15	
2870-60-2	Benzoic acid, 2-(acetylamino)-, sodium salt (1:1)	552.15	
2870-71-5	Atropine methyl bromide	495.65	
28705-46-6	Ethyl 7-diethylaminocoumarin-3-carboxylate	360.15	
28708-32-9	D-Ribofuranose, 1,2,3,5-tetraacetate	355.15	
2871-01-4	HC Red 3	400.15	
2871-26-3	9-(3-Phenyl-2-propen-1-ylidene)-9H-fluorene	428.15	
28710-97-6	1-Phenyl-3-aminopyrazol-5-one	492.15	
28712-61-0	6,7-Dihydro-3-methyl-5H-cyclopenta[b]pyridine	312.9	498.15
28715-26-6	4,7-Dimethylbenzofuran	355.15	489.15
2872-08-4	4,4′-Methylenebis[2-(1,1-dimethylethyl)-5-methylphenol]	447.65	
2872-47-1	1-Amino-4-chloro-9,10-anthracenedione	450.65	
2872-48-2	Disperse Red 11	515.15	
2872-52-8	Disperse Red 1	434.15	
2872-66-4	p-Nitrophenyl 2,3,4,6-tetra-O-acetyl-β-D-galactopyranoside	417.65	
2872-72-2	Phenyl 2,3,4,6-tetra-O-acetyl-β-D-galactopyranoside	396.65	
28721-07-5	Oxcarbazepine	488.65	
2873-18-9	2-Bromo-5-chlorothiophene	253.15	
2873-29-2	Tri-O-acetyl-D-glucal	327.65	
2873-36-1	L-Leucyl-L-proline lactam	437.15	
2873-38-3	Ergovaline	494.65	
2873-50-9	1,2,3-Butatriene	572.15	
2873-74-7	Glutaryl dichloride		490.15
2873-90-7	4-(Diethylamino)benzonitrile	339.65	
2873-97-4	N-(1,1-Dimethyl-3-oxobutyl)-2-propenamide	330.65	
28735-27-5	3-(Methylthio)-5-phenyl-1,2,4-triazine	367.15	
28735-33-3	3-(Methylthio)-5,6-diphenyl-1,2,4-triazine	392.15	
2874-74-0	2-Methyldodecanoic acid	295.15	
28748-99-4	4,5,6,7-Tetrahydro-3-phenyl-1H-indazole	406.15	
28749-00-0	1,4,5,6-Tetrahydro-3-phenylcyclopentapyrazole	417.15	
2875-18-5	2,3,5,6-Tetrafluoropyridine		375.15
28752-91-2	2-[(Dimethylamino)methylene]-1H-indene-1,3(2H)-dione	418.15	
2876-13-3	Pyridinium, 1-(phenylmethyl)-, chloride (1:1)	402.15	
2876-22-4	1-Aminophenazine	518.65	
2876-23-5	2-Aminophenazine	561.15	
2876-78-0	Methyl 1-naphthylacetate	416.65	
28761-27-5	Undecene	196.15	467.15
2877-14-7	2-(2,3,4,5,6-Pentachlorophenoxy)acetic acid	461.15	
28772-56-7	2H-1-Benzopyran-2-one, 3-[3-(4′-bromo[1,1′-biphenyl]-4-yl)-3-hydroxy-1-phenylpropyl]-4-hydroxy-	478.15	
28773-97-9	1,4-Diacetyltetrahydroimidazo[4,5-d]imidazole-2,5(1H,3H)-dione	478.15	
28782-78-7	N-[(1,1-Dimethylethoxy)carbonyl]-L-alanylglycine	377.65	
28783-41-7	Thieno[3,2-c]pyridine, 4,5,6,7-tetrahydro-, hydrochloride (1:1)	498.15	
28785-06-0	4-Propylbenzaldehyde	292.15	
28787-22-6	Hydrazinecarboxamide, N-(aminoiminomethyl)-, hydrochloride (1:2)	463.65	
2879-15-4	3,9-Dihydro-1,3-dimethyl-8-(phenylmethyl)-1H-purine-2,6-dione	559.65	
2879-20-1	1-(2,3-Dihydro-1,4-benzodioxin-6-yl)ethanone	357.65	
2879-60-9	Acetic acid, 2,2,2-trichloro-, 2,3,4,5,6-pentachlorophenyl ester	403.4	
2879-79-0	N-(2-Methyl-5-nitrophenyl)acetamide	423.65	
28791-26-6	3-Nitro-N-phenylbenzenesulfonamide	395.65	
28797-48-0	11-(2-Chloroacetyl)-5,11-dihydro-6H-pyrido[2,3-b][1,4]benzodiazepin-6-one	485.15	
28799-82-8	1,2-Dihydro-6-hydroxy-1-(2-hydroxyethyl)-4-methyl-2-oxo-3-pyridinecarbonitrile	444.65	
288-05-1	Selenophene	384.15	
288-08-4	Tellurophene		423.15
288-13-1	Pyrazole	341.15	460.15
288-14-2	Isoxazole	391.65	368.15
288-16-4	Isothiazole	449.15	
288-32-4	Imidazole	363.65	530.15
288-35-7	2H-1,2,3-Triazole	296.65	
288-36-8	1H-1,2,3-Triazole	296.15	477.15
288-37-9	1,2,5-Oxadiazole	389.15	371.15
288-39-1	1,2,5-Thiadiazole		367.15
288-42-6	Oxazole	512.65	342.65
288-47-1	Thiazole		391.15
288-88-0	1H-1,2,4-Triazole	393.15	548.15
288-92-6	1,2,4-Thiadiazole		394.15
288-94-8	1H-Tetrazole	430.15	
2880-40-2	N-[2,4-Bis(aminosulfonyl)-5-chlorophenyl]-2-chloroacetamide	516.65	
2880-49-1	(+)-Heraclenin	370.15	
2880-58-2	2-Methoxy-1,4-benzoquinone	412.15	
28804-58-2	Tricyclohexylbenzene	341.9	
28804-88-8	Dimethylnaphthalene	657.65	538.15
28808-62-0	Fraxinellone	390.15	
2881-30-3	Morpholinium, 4,4,6-trimethyl-2-oxo-, chloride (1:1)	515.15	
2881-31-4	2-(2-Oxo-2-phenylethyl)benzoic acid	435.65	
2881-38-1	Methyl 2,3-dihydro-3-(1-phenylethyl)-2-thioxo-1H-imidazole-4-carboxylate	405.65	
28815-20-5	Tetrahydroisohumulone	306.15	
28818-70-4	Pregnane-3,20-diol, (3α,20S)-	510.65	
2882-15-7	5-Methoxy-2-methylindole-3-acetic acid	434.65	
28821-18-3	7-(Ethylamino)-4-methylcoumarin	420.15	
28822-58-4	3-Isobutyl-1-methylxanthine	473.65	
28822-73-3	(±)-3,4-Dihydroxyphenylglycol	401.65	
28824-94-4	4-Methyl-2-phenyl-1H-imidazole-5-carboxylic acid	450.15	
28829-58-5	1-Octene, polymer with 1-butene and ethene	394.15	
2883-02-5	Nonylcyclohexane	263.15	555.15
2883-45-6	1,6-Heptadien-4-ol		424.15
2883-98-9	Asarone	335.65	569.15
28831-65-4	(+)-Lithospermic acid	458.65	
28832-64-6	2-Aminoperimidine	512.15	
2885-00-9	1-Octadecanethiol	303.15	633.15
2885-39-4	4-[(2R)-2-[(1S,3S,5R)-5-(Acetyloxy)-3,5-dimethyl-2-oxocyclohexyl]-2-hydroxyethyl]-2,6-piperidinedione	413.65	
2886-59-1	1-Methoxy-1,4-cyclohexadiene		421.65
2886-65-9	Desalkylflurazepam	478.65	
28860-95-9	Carbidopa	481.15	
2887-56-1	1-(5-Bromo-2-hydroxy-3-methylphenyl)-1-propanone	342.15	
2887-61-8	2-Hydroxybutyrophenone	283.15	
2887-72-1	3′,5′-Dibromo-4′-hydroxyacetophenone	454.15	
2887-98-1	3-Buten-2-one, 4-phenyl-, oxime	382.4	
28871-62-7	rel-(1R,2S,3R,4S)-7-Oxabicyclo[2.2.1]hept-5-ene-2,3-dicarboxylic acid	412.15	
28871-91-2	rel-(3aR,4S,7R,7aS)-Hexahydro-4,7-epoxy-1H-isoindole-1,3(2H)-dione	453.15	
28874-51-3	Sodium pyroglutamate	315.15	
28874-52-4	1,2-Dimyristoyl-sn-glycero-3-phosphatidic acid	333.65	
2888-15-5	Benzene, 1,1′-methylenebis[2,4,5-trichloro-	402.15	
2888-63-3	2-Chloro-N-[4-chloro-2-[(E)-(hydroxyimino)phenylmethyl]phenyl]acetamide	444.65	
2888-64-4	Diazepam N-oxide	452.65	
28888-44-0	6,7-Dimethoxy-2,4(1H,3H)-quinazolinedione	595.15	
28893-44-9	(1α,2α)-1,2-Epoxycholesta-4,6-dien-3-one	383.25	
28896-49-3	1,1′-Oxybis[4-iodobenzene]	412.15	
289-06-5	1,3,4-Thiadiazole	316.15	476.15
289-16-7	1,2,4-Trithiolane	347.65	
289-65-6	4H-Pyran		357.15
289-80-5	Pyridazine	265.15	481.15
289-95-2	Pyrimidine	295.15	396.95
289-96-3	1,2,3-Triazine	339.15	
2890-88-2	Triethylamine-boron trichloride 1:1 complex	365.9	
28900-95-0	3-(Octadecylamino)-1,2-propanediol	359.15	
289039-85-6	Benzoic acid, 3-chloro-5-iodo-, methyl ester	316.65	
28906-13-0	Phosgene-tetrabromobisphenol A copolymer	448.15	
28906-96-9	Formaldehyde, polymer with 2-(chloromethyl)oxirane and 4,4′-(1-methylethylidene)bis[phenol]	345.15	
28908-00-1	2-[(Chloromethyl)thio]benzothiazole	314.65	
2891-17-0	4-Chloro-1,3-benzenedisulfonyl dichloride	360.65	
28911-01-5	Triazolam	507.15	
28912-93-8	1-Naphthalenediazonium, tetrafluoroborate(1-) (1:1)	386.15	
28917-43-3	3,5-Bis(phenylmethoxy)benzoic acid	483.15	
2892-18-4	5-Methyl-1-phenyl-1-hexen-3-one	316.15	
2892-51-5	Squaric acid	573.15	
28920-43-6	9-Fluorenylmethyl chloroformate	335.65	
28924-21-2	1-[3,5-Bis(phenylmethoxy)phenyl]ethanone	335.15	
2893-05-2	3-Methyl-1-phenyl-2-butanone		510.15
2893-33-6	2,6-Pyridinedicarbonitrile	368.15	
2893-43-8	N-Ethyl-N-methylethanolamine	420.65	
28936-94-9	8-(Phenylmethyl)-1,3,8-triazaspiro[4.5]decane-2,4-dione	533.15	
28937-85-1	3-Acetylaleuritolic acid	574.65	
2894-45-3	(2-Aminophenyl)(2-chlorophenyl)methanone	371.15	
2894-51-1	2-Amino-4′-chlorobenzophenone	393.15	
2894-67-9	Delorazepam	473.15	
2894-68-0	Chlorodiazepam	442.65	
28940-11-6	7-Methyl-2H-1,5-benzodioxepin-3(4H)-one	311.65	
2895-03-6	Lauryl peroxide	299.65	
2895-07-0	1,1,1,3,3,5,5-Heptamethyltrisiloxane		407.65
2895-21-8	2-Chloro-N-(1-methylethyl)acetamide	335.15	
28950-34-7	1λ4δ2,5λ4δ2-1,3,5,7,2,4,6,8-Tetrathiatetrazocine	452.15	458.15
28954-12-3	L-Allothreonine	547.4	
28956-89-0	(11β)-17-(Benzoyloxy)-11,21-dihydroxypregn-4-ene-3,20-dione	450.65	
28957-04-2	Oridonin	522.15	
28957-08-6	Lasiokaurin	511.65	
28957-72-4	8-Benzyl-8-azabicyclo[3.2.1]octan-3-one	383.9	
28958-28-3	Bromic acid, dysprosium(3+) salt	351.15	
2896-10-8	Tris(4-methylphenyl)arsine	419.15	
2896-60-8	4-Ethylresorcinol	371.65	
2896-67-5	2-Methoxy-6-methylphenol	314.65	
2896-70-0	Tempone	309.15	
289656-45-7	Senicapoc	453.65	
2897-01-0	N-(2-Benzoyl-4-chlorophenyl)-N-(cyclopropylmethyl)-1,3-dihydro-1,3-dioxo-2H-isoindole-2-acetamide	436.65	
2897-60-1	γ-Glycidoxypropylmethyldiethoxysilane		397.15
28972-21-6	Aspidospermidine-3-carboxylic acid, 2,3,6,7-tetradehydro-, methyl ester, hydrochloride (1:?), (5α,12R,19α)-	469.15	
28973-97-9	(Z)-β-Farnesene		544.15
2898-08-0	1,3-Dihydro-5-phenyl-2H-1,4-benzodiazepin-2-one	448.15	
2898-11-5	1H-1,4-Benzodiazepine, 7-chloro-2,3-dihydro-1-methyl-5-phenyl-, hydrochloride (1:1)	532.65	
2898-12-6	Medazepam	369.15	
2898-13-7	Sulazepam	429.65	
2898-76-2	Benzamil	488.65	
28981-97-7	Alprazolam	501.4	
28983-37-1	tert-Tetradecanethiol		491.15
28984-20-5	(SP-4-1)-Bis[1,2-diphenyl-1,2-ethenedithiolato(2-)-κS1,κS2]nickel	533.15	
2899-28-7	L-Tryptophan, ethyl ester, hydrochloride (1:1)	496.15	
2899-36-7	L-Methionine, ethyl ester, hydrochloride (1:1)	359.65	
2899-37-8	L-Methioninol	306.65	
2899-60-7	Glycine, N-[(phenylmethoxy)carbonyl]-, 2,5-dioxo-1-pyrrolidinyl ester	386.65	
28994-41-4	2-Benzylphenol	294.15	585.15
28995-89-3	1,3,6,8-Tetranitronaphthalene	480.15	
28997-31-1	2-[2-(2-Methyl-5-nitro-1H-imidazol-1-yl)ethyl]-1H-isoindole-1,3(2H)-dione	453.15	
290-37-9	Pyrazine	328.15	388.15
290-67-5	1,4-Dioxin		348.65
290-87-9	1,3,5-Triazine	359.15	387.15
290-96-0	1,2,4,5-Tetrazine	372.15	
2900-63-2	3,5-Dinitrobenzoic acid hydrazide	431.15	
29003-73-4	Butyl 2,2-dichloroacetate		466.65
29009-00-5	1,3-Benzenedicarboxylic acid, polymer with 5-amino-1,3,3-trimethylcyclohexanemethanamine and hexahydro-2H-azepin-2-one	485.15	
2901-29-3	Ethyl β-oxo-α-phenylbenzenebutanoate	352.15	
2901-66-8	Methyl (3β,16β,17α,18β,20α)-18-hydroxy-11,17-dimethoxyyohimban-16-carboxylate	510.65	
2901-75-9	N-Acetyl-DL-phenylalanine	419.15	
2901-90-8	Thioperoxydiphosphoric acid ([(HO)2P(S)]2S2), OP,OP,OP′,OP′-tetraethyl ester	296.65	
29011-83-4	1,3-Benzenedicarboxylic acid, polymer with 2,2-dimethyl-1,3-propanediol, 2,5-furandione and 2,2′-oxybis[ethanol]	391.15	
29018-19-7	2-(Dimethylamino)ethyl propanoate		440.65
2902-64-9	Methyl 1,3-dihydro-1,3-dioxo-5-isobenzofurancarboxylate	369.65	
2902-96-7	2-Nitro-1-propanol		372.15
2902-98-9	α-Chloro-α-phenylbenzeneacetyl chloride	322.65	
29022-11-5	Fmoc-Gly-OH	448.15	
29023-48-1	(±)-Timolol	345.15	
29025-14-7	8-Azoniabicyclo[3.2.1]octane, 8-[(4-butoxyphenyl)methyl]-3-[(2S)-3-hydroxy-1-oxo-2-phenylpropoxy]-8-methyl-, bromide (1:1), (3-endo)-	440.15	
29025-67-0	1-(4-Chlorophenyl)-2,8,9-trioxa-5-aza-1-silabicyclo[3.3.3]undecane	505.65	
29026-74-2	2-(1-Methylethoxy)benzenamine	413.15	
2903-12-0	[1,1′-Bicyclohexyl]-1-ol	324.15	
2903-23-3	2-Methyl-2-nonen-4-one		479.15
2903-34-6	N-(4-Chlorophenyl)-4-methylbenzenesulfonamide	391.65	
29031-19-4	Glucosamine sulfate	389.15	
29036-02-0	Quaterphenyl	583.65	
2904-41-8	2,4,6-Trioxo-1,3,5-triazine-1,3,5(2H,4H,6H)-tripropanoic acid	499.65	
2904-60-1	1,4-Benzenedicarbonitrile, 2,3,5,6-tetramethyl-, N1,N4-dioxide	442.65	
2904-62-3	Benzonitrile, 2,6-dichloro-, N-oxide	348.65	
29041-35-8	Matricin	432.15	
29043-89-8	Butoxyacetaldehyde		405.65
2905-17-1	Bis(2,6-dimethylphenyl) disulfide	373.65	
2905-23-9	2-Chlorobenzenesulfonyl chloride	300.55	
2905-27-3	3,5-Dimethylbenzenesulfonyl chloride	402.15	
2905-52-4	C,C′-Diethyl dicarbonodithioate	325.15	
2905-56-8	1-Benzylpiperidine	451.65	518.15
2905-65-9	Benzoic acid, 3-chloro-, methyl ester	294.15	504.15
2905-69-3	Methyl 2,5-dichlorobenzoate	311.65	
29050-11-1	Seclazone	421.65	
29051-44-3	6-Phenylnicotinic acid	505.65	
29053-27-8	Meseclazone	421.15	
2906-55-0	Oleyl palmitate	297.15	
2906-60-7	4,4′-Dithiodibutyric acid	382.65	
29063-00-1	Dimethylanthracene	509.15	
29063-28-3	Octanol	257.15	468.15
29069-24-7	Prednimustine	436.65	
2907-79-1	N-(4-Amino-9,10-dihydro-9,10-dioxo-3-phenoxy-1-anthracenyl)-4-methylbenzenesulfonamide	468.15	
29071-93-0	3-(2-Hydroxyethyl)-5,5-dimethyl-2,4-imidazolidinedione	327.15	
29079-00-3	4-Ethynyl-1,1′-biphenyl	360.15	
2908-76-1	2,2′,4,4′-Tetranitrodiphenylamine	472.15	
29082-74-4	Octachlorostyrene	367.65	
29084-76-2	Benzenamine, 2,4-dichloro-, hydrochloride (1:1)	443.15	
2909-38-8	3-Chlorophenyl isocyanate	269.15	386.65
2909-52-6	Bromoform-d		409.65
29091-05-2	Dinitramine	371.65	
29091-21-2	Prodiamine	397.15	
29094-61-9	Glipizide	481.65	
29095-44-1	N,N-Dimethyl-α-oxo-1H-indole-3-acetamide	432.65	
29096-75-1	2-Amino-5,6-dimethylbenzimidazole	470.15	
29096-93-3	2,5-Dibromo-3-methyl-6-isopropyl-p-benzoquinone	346.15	
29098-15-5	Terofenamate	346.65	
291-21-4	1,3,5-Trithiane	493.15	
291-22-5	1,2,4,5-Tetrathiane	404.65	
291-64-5	Cycloheptane	261.15	391.63
29103-60-4	N-[3-[Bis(phenylmethyl)amino]phenyl]acetamide	416.15	
29104-30-1	Benzoximate	346.15	
29106-32-9	Chaulmoogric acid	341.65	520.65
29106-49-8	Procyanidin B2	470.65	
29108-09-6	3-Furancarboxylic acid, 2-amino-4,5-dihydro-, ethyl ester	325.65	
2911-36-6	6-Chloro-N2,N4-dimethyl-1,3,5-triazine-2,4-diamine	575.65	
29110-47-2	Guanfacine	499.15	
29110-48-3	Guanfacine hydrochloride	487.65	
29110-74-5	3-Chloroindazole	422.15	
29110-75-6	4-Methylbenzenesulfonic acid 2-phenylhydrazide	428.15	
29113-41-5	5-Butyl-2,3-dihydro-6-methyl-2-thioxo-4(1H)-pyrimidinone	470.65	
29118-24-9	(1E)-1,3,3,3-Tetrafluoro-1-propene		257.15
29118-70-5	rel-(1R,2S,5E,9Z)-5,9-Cyclododecadiene-1,2-diol	441.65	
2912-11-0	Affinisine	2197.15	
2912-62-1	α-Chlorobenzeneacetyl chloride	558.15	
29122-68-7	Atenolol	420.15	
29122-69-8	Benzeneacetamide, 4-(oxiranylmethoxy)-	445.65	
29123-12-4	Acetic acid, 2-[(4-chloro-2,1,3-benzothiadiazol-5-yl)oxy]-, ethyl ester	370.15	
29124-54-7	5-Chloro-2-(methylsulfonyl)benzenamine	360.65	
29124-55-8	2,2′-Dithiobis[5-chlorobenzenamine]	338.15	
29125-25-5	(αR)-α-Azidobenzeneacetic acid	329.15	
29128-23-2	2,4,6-Trinitro-1,1′-biphenyl	403.15	