CAS	name	Tm	Tb
13241-31-1	(2S)-7-[[2-O-(6-Deoxy-α-L-mannopyranosyl)-β-D-glucopyranosyl]oxy]-2,3-dihydro-5-hydroxy-2-phenyl-4H-1-benzopyran-4-one	543.15	
13242-53-0	α-D-Mannopyranosyl bromide, 2,3,4,6-tetraacetate	333.65	
132431-12-0	Phenylmethyl 2,3-dihydro-1H-indole-1-carboxylate	334.65	
132434-53-8	(2E)-1-(4-Bromophenyl)-3-(2-furanyl)-2-propen-1-one	332.15	
13244-38-7	2-Methoxy-7-nitro-9(10H)-acridinone	623.15	
13246-14-5	2′,6′-Dimethoxy-4′-hydroxyacetophenone	458.15	
13246-97-4	Phenylmethyl 2-(2,4-dichlorophenoxy)acetate	318.65	
13247-80-8	2-(2-Bromoethoxy)naphthalene	365.15	
132482-43-0	6-Nitrobenzo[a]pyren-1-amine	528.65	
13252-84-1	4-Hydroxy-6-methoxy-2H-1-benzopyran-2-one	443.15	
13254-09-6	Cholylhydroxamic acid	418.15	
132546-97-5	2-Amino-4-(4-chlorophenyl)-4H-pyrano[3,2-h]quinoline-3-carbonitrile	522.65	
132559-91-2	4-Bromo-6-methyl-2H-pyran-2-one	361.15	
1325724-91-1	1-(2-Methylphenyl)-1H-1,2,3-triazole-4-carboxaldehyde	344.65	
1325724-92-2	1-(3,4-Dichlorophenyl)-1H-1,2,3-triazole-4-carboxaldehyde	441.65	
1325724-93-3	1-(2,5-Dichlorophenyl)-1H-1,2,3-triazole-4-carboxaldehyde	436.65	
132587-63-4	3-Methoxy-1-methyl-2-propyl-4(1H)-quinolinone	359.15	
132600-17-0	4,6,7,8-Tetrahydro-4-(4-nitrophenyl)-1-phenyl-2,5(1H,3H)-quinolinedione	464.15	
132605-96-0	(2R)-2-[[[(1,1-Dimethylethoxy)carbonyl]amino]methyl]-4-methylpentanoic acid	347.15	
132606-40-7	3-Bromo-6-chloro-2-methylpyridine	319.65	
13262-39-0	N-4-Morpholinyl-N′-phenylurea	436.15	
132622-69-6	1-(1,1-Dimethylethyl) (2S,4R)-4-amino-1,2-pyrrolidinedicarboxylate	501.65	
132622-71-0	1-(1,1-Dimethylethyl) (2S,4S)-4-cyano-1,2-pyrrolidinedicarboxylate	411.65	
132628-16-1	N-(2-Phenylacetyl)guanosine	462.15	
132651-59-3	Ethyl 5-amino-4-cyano-3-(1-piperidinylmethyl)-2-thiophenecarboxylate	407.15	
132680-55-8	1,1-Dimethylethyl 1H-benzotriazole-6-carboxylate	435.65	
132682-23-6	(4R)-4-(Hydroxymethyl)-2-oxazolidinone	369.15	
13269-28-8	O-[(Aminoiminomethyl)amino]homoserine	455.15	
13269-48-2	cis-2,5-Dimethoxytetrahydrofuran		420.15
132696-47-0	(αR)-α-[[[(Phenylmethoxy)carbonyl]amino]methyl]benzenepropanoic acid	347.15	
13274-75-4	4-(4-Nitrophenyl)-3H-1,2,4-triazole-3,5(4H)-dione	398.65	
132765-36-7	3,3′-[[2-[4,5-Bis[(2-cyanoethyl)thio]-1,3-dithiol-2-ylidene]-1,3-dithiole-4,5-diyl]bis(thio)]bis[propanenitrile]	459.15	
13278-39-2	2-[(3-Bromophenyl)amino]benzoic acid	442.65	
132796-57-7	(2S,4aS,5R,6R,8aR)-Decahydro-5-[(3R)-3-hydroxy-3-methyl-4-penten-1-yl]-1,1,4a,6-tetramethyl-2,6-naphthalenediol	436.65	
132814-92-7	5,5′′′-Dihexyl-2,2′:5′,2′′:5′′,2′′′-quaterthiophene	439.15	
132815-42-0	4-(Propylamino)-2H-1-benzopyran-2-one	383.65	
13283-91-5	3-Oxooctanoic acid	326.15	
13283-92-6	3-Oxodecanoic acid	355.65	
13286-65-2	trans-1-Amino-1,2,3,4-tetrahydronaphthalen-2-ol	378.15	
132867-78-8	α-L-Glucopyranose, 4,6-dideoxy-4-iodo-, tribenzoate	413.65	
132871-10-4	(3S)-3-Methyl-1-(phenylmethyl)-2,5-piperazinedione	411.9	
132871-11-5	(3R)-3-Methyl-1-(phenylmethyl)piperazine	304.15	
13289-44-6	2-Nitroso-2-(2-phenylethyl)hydrazinecarboxamide	374.65	
132898-96-5	5-Isatinsulfonyl chloride	424.15	
13290-51-2	2,5-Bis[(dimethylamino)methyl]cyclopentanone	317.15	
132906-07-1	Chloromethyl N-(phenylmethyl)carbamate	323.15	
132906-52-6	8-Chloro-2,3,4,9-tetrahydro-1H-carbazol-1-one	432.15	
13291-18-4	Magnesium, bromo(1-methylethenyl)-	376.15	
13291-19-5	Methyl 3,3-dichloro-2,2,3-trifluoropropanoate		402.65
132915-49-2	Irilin A	479.65	
132915-81-2	3-Chloro-4-fluoro-1,2-benzenediamine	368.15	
132932-63-9	Methyl 4-benzo[b]thien-2-ylbenzoate	495.15	
13296-23-6	4-(Methylthio)-2-butanol		319.65
13296-27-0	3-Methyl-3-buten-1-amine		359.15
13296-57-6	1,2-Ethanediol, 1-(N-methylcarbamate)		419.15
132973-43-4	4-(Aminomethyl)-2(1H)-quinolinone	608.15	
13298-50-5	1-(2-Naphthalenyl)-1,3-butanedione	355.15	
13300-10-2	4-Methyl-2-[2-(4-morpholinyl)ethyl]-6-phenyl-3(2H)-pyridazinone	363.15	
133044-38-9	3-Methyl-6-(1-oxobutyl)-2(3H)-benzothiazolone	388.65	
133069-19-9	Poly(2,5-dioctyloxy-p-phenylenevinylene)	443.15	
133081-25-1	6-[2-(tert-Butoxycarbonyl)hydrazinyl]nicotinic acid	399.15	
1331-47-1	Dichlorobenzidine	405.65	
13311-79-0	1,2,3,4-Tetrahydro-6-methoxyquinoxaline	350.9	
13311-88-1	2,2-Dimethyl-N-[4-nitro-3-(trifluoromethyl)phenyl]propanamide	408.65	
13312-84-0	2-Chloro-α-hydroxybenzeneacetonitrile	320.15	
13313-19-4	N-[(4-Nitrophenyl)methylene]-3-pyridinamine	430.15	
13317-71-0	4-Chloro-5-methyl-2-phenylpyrimidine	364.65	
13319-71-6	2-Bromo-6-methylphenol	428.65	
13321-74-9	1-Bromo-2,5-dimethoxy-4-methylbenzene	365.65	
13321-75-0	2,4-Dibromo-3-methylphenol	337.15	
133218-07-2	5-(2-Propyn-1-yl)-1,3-benzodioxole	299.65	
13322-20-8	5-Methyl-2-phenyl-2H-1,2,3-triazole-4-acetonitrile	369.15	
133220-30-1	Indanofan	334.15	
13323-45-0	3-Methyl-3,9-diazaspiro[5.5]undecane	402.15	
13323-48-3	2-Butenoic acid, 2-methyl-, (1aR,3R,3aR,6aR,7E,9S,10aR)-1a,2,3,3a,4,5,6a,9,10,10a-decahydro-9-hydroxy-1a,8-dimethyl-4-methylene-5-oxooxireno[5,6]cyclodeca[1,2-b]furan-3-yl ester, (2E)-	487.15	
13324-79-3	2,3-Dihydro-2-(4-methylphenyl)-4(1H)-quinazolinone	505.15	
13324-82-8	2,3-Dihydro-2-[(1E)-2-phenylethenyl]-4(1H)-quinazolinone	444.65	
1332634-91-9	N1-(4-Chlorophenyl)-N2-(5-fluoro-2,4-dinitrophenyl)-1,2-benzenediamine	483.15	
13329-61-8	1-(2-Chloro-4-methoxyphenyl)-1-propanone	300.65	
13333-81-8	2-(2,4,6-Trimethylphenoxy)acetic acid	422.65	
133341-88-5	4-[(Methylamino)carbonyl]-1H-pyrrole-3-carboxylic acid	547.65	
13335-71-2	2-(2,6-Dimethylphenoxy)acetic acid	414.15	
13336-32-8	2,3-Dihydro-4,6-dimethoxy-1H-inden-1-one	370.15	
13337-65-0	Ethyl 5,6,7,8-tetrahydro-2,7,7-trimethyl-5-oxo-4-phenyl-3-quinolinecarboxylate	366.65	
13337-72-9	Decahydro-4-quinolinecarboxylic acid	573.15	
13337-76-3	Methyl 7-chloro-4-quinolinecarboxylate	387.15	
13338-66-4	1,2,3,4-Tetrahydro-6,8-dimethoxy-2-methyl-7-isoquinolinol	407.15	
13339-21-4	Benzoic acid, 2-hydroxy-5-[[4-(2-methylphenyl)-1-piperazinyl]methyl]-, methyl ester, hydrochloride (1:2)	452.15	
1334170-23-8	Carbamic acid, N-[2-(aminomethyl)phenyl]-, 1,1-dimethylethyl ester, hydrochloride (1:1)	483.15	
1334179-86-0	1H-1,2,3-Triazole-1-ethanol, 4-[[bis[[1-(1,1-dimethylethyl)-1H-1,2,3-triazol-4-yl]methyl]amino]methyl]-, 1-(hydrogen sulfate)	433.15	
133427-00-6	Imidazo[1,2-a]pyridine-8-carboxylic acid, 2-methyl-, ethyl ester	336.15	
13343-63-0	Phenylmethyl 2-(acetylamino)-2-deoxy-4,6-O-(phenylmethylene)-α-D-glucopyranoside	534.15	
13343-67-4	Phenylmethyl 2-(acetylamino)-2-deoxy-β-D-glucopyranoside	483.65	
1334500-61-6	1,2-Diethyl 1-(4-nitrophenyl)-1,2-hydrazinedicarboxylate	440.15	
1334513-10-8	N-[[P(S),2′R]-2′-Deoxy-2′-fluoro-2′-methyl-P-phenyl-5′-cytidylyl]-L-alanine 1-methylethyl ester	354.15	
133481-09-1	1-Cyanocyclohexaneacetic acid	377.15	
13349-91-2	Piperazine, 1-(2,2,2-trifluoroethyl)-, hydrochloride (1:2)	474.65	
13351-86-5	Ethenyl 4-methoxybenzoate	330.65	
13352-76-6	2,4,6,8,10,12-Hexaoxatridecane	291.45	515.45
13353-06-5	1,1-Dibromo-2-methyl-1-propene		429.65
13353-68-9	1-(2-Benzothiazolylthio)-3-chloro-2-propanol	355.65	
13354-17-1	9H-Fluorene-2-sulfonyl chloride	432.15	
1336-17-0	Acetone peroxide	405.15	
13360-80-0	P,P-Bis(2-methylpropyl)phosphinodithioic acid	312.65	
133609-29-7	1,2-Dihydro-2-oxo-4-phenyl-3-pyridinecarboxylic acid	522.15	
133609-87-7	2,3-Dihydro-3,3-dimethyl-7-benzofurancarboxylic acid	408.65	
13361-29-0	1H-Imidazolium, 3-ethenyl-1-methyl-, iodide (1:1)	348.15	
13361-40-5	Propyl 4-nitrobenzeneacetate	310.15	
133627-18-6	11-Ethyl-5,11-dihydro-4,5-dimethyl-6H-dipyrido[3,2-b:2′,3′-e][1,4]diazepin-6-one	431.15	
133627-25-5	11-Cyclopropyl-6,11-dihydro-6-oxo-5H-dipyrido[3,2-b:2′,3′-e][1,4]diazepine-4-carbonitrile	517.15	
133627-46-0	2-Chloro-N-(2-chloro-4-methyl-3-pyridinyl)-3-pyridinecarboxamide	463.15	
133627-47-1	Cyclor	401.15	
13363-59-2	Benzoic acid, 2,2′-dithiobis[3-methyl-	525.15	
133645-49-5	Ethyl (3R,4S,5S)-4-[[(1,1-dimethylethoxy)carbonyl]amino]-3-hydroxy-5-methylheptanoate	323.15	
133661-38-8	4-Chloro-5-methoxy-2-(4-pyridinyl)pyrimidine	403.15	
133665-85-7	1-[5-(3-Hydroxy-1-propyn-1-yl)-2-thienyl]ethanone	355.15	
133676-10-5	Methyl 2-(4-hydroxy-3-methoxyphenyl)-4-quinolinecarboxylate	417.15	
133676-11-6	Methyl 2-(3,4-dimethoxyphenyl)-4-quinolinecarboxylate	380.15	
13369-83-0	4-Iodo-2-methyl-5-nitroimidazole	545.15	
13371-35-2	Stibonium, tetraphenyl-, hydroxide (1:1)	493.15	
13372-82-2	2-(Phenylmethylene)heptanal oxime	345.15	
13373-29-0	Ethyl α-cyano-4-hydroxy-3-methoxycinnamate	384.15	
13373-38-1	1,4-Bis(acetyloxy)-3,5,5-trichloro-2-cyclopentene-1-carboxylic acid	464.65	
13374-31-7	Cyclohexanol, 2-amino-, hydrochloride (1:1), (1R,2R)-	449.65	
1337882-12-8	3-Iodo-1-(tetrahydro-2H-pyran-2-yl)-1H-indazole	348.15	
13379-67-4	P-(2,3,4,5,6-Pentafluorophenyl)phosphonous dibromide	337.65	
13379-99-2	N-(3-Chloropropyl)-4-methylbenzenesulfonamide	326.15	
13382-47-3	(2-Hydroxyethoxy)acetic acid	317.15	
133833-95-1	2-Amino-5-methyl-4-thiazolol	480.65	
133838-65-0	Americanol A	399.65	
133841-05-1	7-Methoxy-1H-indazole	364.65	
133841-14-2	1H-Indazole-3-carboxamide, 1-methyl-N-(9-methyl-9-azabicyclo[3.3.1]non-3-yl)-7-(phenylmethoxy)-, endo-	426.15	
133844-85-6	2-Methyl-4-(3-thienyl)-3-butyn-2-ol	328.15	
133860-42-1	1-(3-Hydroxy-5-methyl-2-thienyl)ethanone	347.65	
133860-75-0	2-Chloro-N-(2-methylpropyl)-3-nitro-4-quinolinamine	359.65	
133860-76-1	2-Chloro-N4-(2-methylpropyl)-3,4-quinolinediamine	419.65	
13388-76-6	3-Chloro-6,8-dimethoxyisoquinoline	432.65	
133882-75-4	9-(1,3-Benzodioxol-5-yl)-4-[(4-O-β-D-glucopyranosyl-2,3-di-O-methyl-β-D-xylopyranosyl)oxy]-6,7-dimethoxynaphtho[2,3-c]furan-1(3H)-one	414.15	
133891-75-5	Acetamide, 2,2,2-trifluoro-N-[(3-methyl-3-azetidinyl)methyl]-, hydrochloride (1:1)	462.65	
133891-87-9	3-Azetidinol, 1-(diphenylmethyl)-3-methyl-, 3-methanesulfonate	387.15	
133902-67-7	Ethyl 1-(4-nitrophenyl)-1H-1,2,3-triazole-4-carboxylate	458.15	
13391-47-4	4-(Hydroxyphenylmethyl)benzonitrile	341.65	
13395-19-2	6-Methyl-1H-benzimidazole-2-propanol	410.15	
13398-95-3	2-(2-Hydroxyethyl)-1,4-benzenediol	455.15	
133997-44-1	Benzenamine, 4,4′,4′′-[1,3,5-triazine-1,3,5(2H,4H,6H)-triyl]tris-	457.65	
134-65-6	rel-2-[(2R,6S)-6-[(2S)-2-Hydroxy-2-phenylethyl]-1-methyl-2-piperidinyl]-1-phenylethanone	383.15	
13401-40-6	(-)-Phaseollin	450.65	
13402-55-6	1,3-Dihydro-4-hydroxy-2H-indol-2-one	540.15	
134029-62-2	(E)-3,4,5,4′-Tetramethoxystilbene	431.15	
134030-22-1	N1,N2-Bis[2,6-bis(1-methylethyl)phenyl]-1,2-ethanediamine	374.65	
1340481-82-4	5-Thia-2-azaspiro[3.4]octane-2-carboxylic acid, 8-[[(phenylmethoxy)carbonyl]amino]-, 1,1-dimethylethyl ester, 5,5-dioxide	422.15	
13405-60-2	1-O-Galloyl-β-D-glucose	487.15	
134074-43-4	Methyl 1,2,3,4-tetrahydro-4-(2-methoxyphenyl)-6-methyl-2-thioxo-5-pyrimidinecarboxylate	527.15	
13408-56-5	Ponasterone A	532.65	
13410-15-6	6-Methoxymellein	345.65	
13415-59-3	1-Hexanone, 1-phenyl-2-(1-pyrrolidinyl)-, hydrochloride (1:1)	412.15	
13415-83-3	1-Phenyl-2-(1-pyrrolidinyl)-1-heptanone	431.15	
134161-75-4	5-(4-Methoxyphenyl)-1H-pyrazole-3-acetonitrile	423.15	
134161-76-5	5-(4-Chlorophenyl)-1H-pyrazole-3-acetonitrile	437.65	
13419-91-5	11-Hydroxyoctadecanoic acid	341.4	
13421-01-7	5-Chloro-2-(phenylthio)benzoic acid	439.65	
13421-98-2	(4aR,4bS,6aR,8S,10aS,10bR)-4,4a,4b,5,6,6a,7,8,9,10,10a,10b,11,12-Tetradecahydro-8-hydroxy-6a-methyl-2(3H)-chrysenone	401.15	
134221-53-7	4-Chloro-5-iodo-2,6-dimethoxypyrimidine	400.15	
134237-50-6	α-Hexabromocyclododecane	453.15	
13425-93-9	6,7-Dimethoxy-4-hydroxyquinoline	497.65	
134275-16-4	1-(Phenylmethyl)-2-(trifluoromethyl)-1H-benzimidazole	348.65	
13428-25-6	4,6-Dichloro-5-methoxy-2-pyrimidinamine	489.15	
13431-35-1	N-Propylhydrazinecarbothioamide	334.4	
13431-36-2	4-Isopropylthiosemicarbazide	355.65	
13432-39-8	1-β-D-Ribofuranosyl-1H-imidazo[4,5-b]pyridine	493.15	
13433-48-2	N-[2-(3,4-Dimethoxyphenyl)ethyl]-1H-indole-3-acetamide	395.65	
13436-49-2	1-(1H-Indazol-1-yl)ethanone	443.15	
134362-34-8	N-[(1,1-Dimethylethoxy)carbonyl]-4-fluoro-L-phenylalanine methyl ester	312.65	
134365-29-0	1-(2-Bromo-4-methyl-5-nitrophenyl)ethanone	336.15	
134366-04-4	1-(2,4,6-Trifluorophenyl)-1H-pyrrole-2,5-dione	375.65	
134395-00-9	Atorvastatin tert-butyl ester	428.15	
13440-24-9	meso-1,2-Dibromo-1,2-diphenylethane	509.65	
13443-56-6	1-(3,4-Dimethoxyphenyl)-1,2-ethanediol	353.9	
134521-16-7	Bis(4-cyanophenyl)methanol	431.65	
134532-03-9	2-Amino-2′-hydroxy-1,1′-binaphthyl	469.15	
134541-05-2	5-(1-Methylethyl)-4-isoxazolecarboxylic acid	353.65	
134541-07-4	5-(Phenylmethyl)-4-isoxazolecarboxylic acid	423.65	
134541-09-6	4-Carboxy-5-isoxazolepropanoic acid	463.15	
13455-05-5	Thiophosphoramide	369.9	
13455-22-6	Potassium fluorosulfonate	584.15	
1345697-83-7	N-(3,5-Dimethylphenyl)alanine	396.15	
13457-23-3	Methyl 6-bromo-3-(methylamino)-2-pyrazinecarboxylate	455.65	
134575-06-7	Ethyl (1α,5α,6α)-2,4-dioxo-3-(phenylmethyl)-3-azabicyclo[3.1.0]hexane-6-carboxylate	378.15	
134575-17-0	Carbamic acid, N-(1α,5α,6α)-3-azabicyclo[3.1.0]hex-6-yl-, 1,1-dimethylethyl ester	383.65	
13464-23-8	5-(1,1-Dimethylethyl)-2-hydroxy-3-methylbenzenemethanol	337.15	
13466-33-6	4-Phenyl-3-buten-2-one 2,2-dimethylhydrazone	317.15	
13466-39-2	3-Phenyl-2-propenal 2,2-dimethylhydrazone	273.25	
13468-89-8	1,3,2-Dioxaphospholane, 2-phenyl-, 2-oxide	327.15	
134698-86-5	Muricatacin	345.65	
13472-58-7	3,5-Dichloro-2-methoxypyridine	363.15	
13472-60-1	3,5-Dibromo-2-methoxypyridine	323.15	
13472-61-2	5-Iodo-2-methoxypyridine		382.65
13472-80-5	3,5-Diiodo-2(1H)-pyridinone	534.65	
13474-14-1	Valinamide	352.15	
13476-25-0	Linderane	463.65	
134779-17-2	3,11-Dihydro-3,3,5-trimethylpyrano[3,2-a]carbazol-9-ol	435.65	
13482-22-9	4-Hydroxycyclohexanone		357.15
13484-38-3	1-(2-Ethoxyethyl)piperazine	389.15	
13484-39-4	Piperazine, 1,4-bis(2-ethoxyethyl)-	424.15	
13484-50-9	2,3,5,6-Tetrachloropyrazine	370.15	
13484-51-0	3,5,6-Trichloro-2-pyrazinamine	411.15	
13488-22-7	5,8,11-Eicosatriynoic acid	344.15	
134892-35-6	3,5-Dichloro-2-[(2-cyanoethyl)amino]benzoic acid	397.15	
13492-06-3	(1S,2S)-2-(1,1-Dimethylethyl)cyclohexanol	329.15	
13494-10-5	2′,3′-Dihydroxyacetophenone	370.65	
134992-15-7	6-(Methylthio)-5-nitroquinoline	411.9	
135-94-4	2-Methyl-4-(methylamino)-5-pyrimidinemethanol	444.65	
13500-25-9	5-[(4-Hydroxyphenyl)methyl]-5-methyl-2,4-imidazolidinedione	580.15	
13500-55-5	L-Proline, 4-ethoxy-, trans-	472.15	
135010-49-0	2,7-Dihydroxy-6-methoxy-5H-phenanthro[4,5-bcd]pyran-5-one	573.15	
13504-89-7	O-[(4-Methylphenyl)sulfonyl]-L-tyrosine	486.65	
13505-03-8	4-Nitro-N-phenyl-3-pyridinamine	389.15	
13505-35-6	4,8-Undecanedione	328.15	
13506-83-7	B,B′-1,2-Phenylenebis[boronic acid]	394.65	
135063-63-7	2-(Bromomethyl)imidazo[1,2-a]pyrimidine	428.15	
13508-97-9	5-Ethyl-2-methyl-4-nitropyridine	357.15	
13512-31-7	N-[(Phenylmethoxy)carbonyl]-L-tyrosine methyl ester	365.65	
13514-94-8	2-Nitro-5-(1-piperidinyl)benzonitrile	402.65	
13515-07-6	5,6-Diphenyl-2-pyrazinecarboxylic acid	451.15	
13518-80-4	2-(Trimethylsilyl)-2H-1,2,3-triazole	421.15	
13519-75-0	4-Chloro-N-ethylbenzenamine		521.65
13519-76-1	N-Ethyl-2,5-dimethylbenzenamine		495.65
13519-81-8	2,5-Dimethyl-N-2-propen-1-ylbenzenamine		362.15
135206-89-2	1H-Imidazole, 2-(chloromethyl)-1-(1-methylethyl)-, hydrochloride (1:1)	425.65	
13524-09-9	(3,3-Dichloro-1-propyn-1-yl)benzene		355.65
13529-31-2	Androstane-3,17-diol, 2,16-di-1-piperidinyl-, 3,17-diacetate, (2β,3α,5α,16β,17β)-	451.15	
135308-80-4	Methanediol, 1-(4-bromo-2-nitrophenyl)-, 1,1-diacetate	407.65	
135328-50-6	2-(1H-Indol-7-yloxy)acetonitrile	349.65	
13535-02-9	Pyridine, 3,4-dibromo-, 1-oxide	414.15	
13535-47-2	1-(2-Methyl-1H-benzimidazol-6-yl)ethanone	463.65	
13535-92-7	4-Methyl-2-quinazolinecarboxamide	508.65	
13535-96-1	12α-Hydroxy-3-oxo-4,6-choladien-24-oic acid	526.15	
135383-81-2	3′-Formyl-2′,4′,6′-trihydroxydihydrochalcone	431.15	
13541-06-5	3,3,3-Trifluoro-1-(3-nitrophenyl)-1-propanone	362.65	
13544-05-3	Methyl α-cyano-2-nitro-4-(trifluoromethyl)benzeneacetate	374.65	
13544-09-7	6-(Trifluoromethyl)-1H-indole-3-carboxaldehyde	514.65	
13544-10-0	6-(Trifluoromethyl)-1H-indole-3-carboxylic acid	492.15	
135441-89-3	Bicyclo[2.2.1]heptan-2-ol, 1,7,7-trimethyl-2-(methyl-d3)-, (1R-exo)-	443.15	
13545-08-9	2-[(1,2,3,4-Tetrahydro-2,4-dioxo-5-pyrimidinyl)methylene]hydrazinecarbothioamide	548.15	
13552-11-9	4-Hydroxysphinganine	410.15	
13552-72-2	Isocorydine hydrochloride	478.15	
13556-29-1	1-[(3-Aminopropyl)amino]anthracene-9,10-dione	543.15	
13556-72-4	N1-Phenyl-N2-(phenylmethyl)-1,2-benzenediamine	382.9	
13558-72-0	1-Methylethyl N-(2-chloroacetyl)carbamate	373.15	
13558-78-6	2-Chloro-N-[[(4-methoxyphenyl)amino]carbonyl]acetamide	444.65	
135585-34-1	1-(2,3-Dihydroxypropyl) 4-dodecyl 2-methylenebutanedioate	335.65	
13560-54-8	N-[[3,5-Bis(1,1-dimethylethyl)-4-hydroxyphenyl]methyl]-2-methyl-2-propenamide	399.15	
13560-58-2	2-(Triethylplumbyl)-1H-isoindole-1,3(2H)-dione	401.15	
13562-24-8	1,2,3,4-Tetrahydro-2,2,4-trimethyl-4-phenylquinoline	342.65	
13562-46-4	1-(2-Hydrazinylethyl)-4-methylpiperazine	347.65	
13563-60-5	Norgesterone	415.65	
13565-07-6	(2E)-3-(4-Methylphenyl)-2-propenoyl chloride	343.65	
13565-09-8	(2E)-3-(4-Bromophenyl)-2-propenoyl chloride	343.65	
13565-37-2	(2E)-1,3-Bis(4-methylphenyl)-2-propen-1-one	400.15	
13565-39-4	(2E)-3-(4-Chlorophenyl)-1-(4-methylphenyl)-2-propen-1-one	395.65	
13575-43-4	Thiazolo[4,5-b]pyridine-2,5-diamine	411.65	
13575-47-8	Carbamodithioic acid, dimethyl-, 1-piperidinylmethyl ester	342.65	
13575-75-2	3,4-Dihydro-6,7-dimethoxy-1(2H)-naphthalenone	371.65	
13576-52-8	4-(2-Amino-5-oxazolyl)phenol	493.65	
13576-53-9	5-[4-(Methylsulfonyl)phenyl]-2-oxazolamine	514.15	
13576-58-4	5-(4-Aminophenyl)-2-oxazolamine	466.15	
13577-71-4	Fluoromidine	566.15	
135795-54-9	2-Chloro-N-[2-(ethylamino)-3-pyridinyl]-5-nitro-3-pyridinecarboxamide	458.65	
1358-75-4	(16S,19Z)-Sarpagan-17-ol	476.15	
1358-76-5	Koumine	441.15	
13580-88-6	4-Amino-1(2H)-phthalazinone	530.65	
13583-21-6	Norclostebol	494.65	
13587-11-6	7α,12α-Dihydroxy-3-oxo-4-cholen-24-oic acid	505.15	
13587-70-7	2-(3,4-Dihydro-6-methoxy-1-oxo-2(1H)-naphthalenylidene)acetic acid	450.15	
13590-98-2	Imidodicarbonimidic diamide, N,N′-bis(4-chlorophenyl)-, hydrochloride (1:1)	523.15	
13596-24-2	1,1,1,2,2,3,3,4,4,5,5,5-Dodecachloropentasilane	620.15	
13599-90-1	4-Methyl-3-(2H-tetrazol-5-yl)pyridine	499.15	
136-61-8	4-Pyridinecarboxylic acid, 2-(3-hydroxy-2,2-dimethylpropylidene)hydrazide	467.15	
13600-34-5	Pyridine, 3-(2H-tetrazol-5-yl)-, 1-oxide	521.15	
13600-43-6	4-(Trifluoromethyl)-3-pyridinecarbonitrile		343.15
13600-46-9	5-Amino-2-chloro-3-pyridinecarbonitrile	466.4	
13600-48-1	2-Chloro-6-methyl-4-(trifluoromethyl)-3-pyridinecarbonitrile		358.15
13602-84-1	2,6-Dimethyl-3,4-pyridinedicarboxylic acid	548.15	
13602-95-4	Ethyl 3-hydroxy-2-methyl-4-pyridinecarboxylate	319.15	
13602-96-5	3,5-Diethyl 2-methyl-3,5-pyridinedicarboxylate	335.15	
136027-17-3	Phenylmethyl N-[2-(aminosulfonyl)ethyl]carbamate	406.65	
13603-45-7	2,6-Dimethyl-3-nitro-4-pyridinol	569.15	
13603-63-9	1-(4-Methoxyphenyl)-1,2-ethanediol	355.15	
13603-64-0	1-(1-Naphthalenyl)-1,2-ethanediol	387.9	
13605-66-8	1-Chloro-3-(triphenylphosphoranylidene)-2-propanone	452.65	
13610-49-6	2-Oxo-3(2H)-benzoxazoleacetic acid	453.15	
13610-53-2	α-Methyl-2-oxo-3(2H)-benzoxazoleacetic acid	439.15	
13615-38-8	3-Methyl-1-nitronaphthalene	513.65	
13616-38-1	1-(2H-Tetrazol-5-yl)-2-propanone	387.15	
136164-66-4	(2E)-2-[(4,5-Dimethoxy-2-methyl-3,6-dioxo-1,4-cyclohexadien-1-yl)methylene]undecanoic acid	329.65	
13618-91-2	4,5,6,7-Tetrahydro-1H-indole	327.15	
13618-92-3	1,4,5,6,7,8-Hexahydrocyclohepta[b]pyrrole	377.15	
1362-42-1	Absinthin	452.65	
13621-23-3	1-(2,4-Dimethyl-5-nitrophenyl)ethanone	340.15	
13621-26-6	2,4-Dimethylbenzenebutanoic acid	351.55	
13621-30-2	2,3-Dimethylbenzenebutanoic acid	351.65	
13623-84-2	1,2,3,4-Tetrahydro-1,6-naphthyridine	429.65	
136247-72-8	(3R)-5-Methoxy-1′-methylspiro[3H-indole-3,3′-pyrrolidin]-2(1H)-one	396.65	
13625-49-5	1,3,8-Triazaspiro[4.5]decane-2,4-dione, 3-methyl-, hydrochloride (1:1)	607.15	
13626-60-3	3-Hydroxyisoxazole-5-carboxylic acid	538.15	
13626-61-4	Ethyl 2,3-dihydro-3-oxo-5-isoxazolecarboxylate	399.65	