CAS	name	Tm	Tb
2109-99-1	2-Methyl-2-(phenylmethyl)-1,3-propanediol	346.65	
21094-80-4	Methanethiol, mercury(2+) salt	449.15	
211-91-6	Benz[l]aceanthrylene	430.65	
2110-78-3	Methyl 2-hydroxyisobutyrate		410.15
21101-63-3	1-(Bromomethyl)-4-[(trifluoromethyl)thio]benzene	325.4	378.65
21104-28-9	Mahanimbine	367.65	
21109-99-9	Mercury, (acetato-O)[4-(diethylamino)phenyl]-	371.15	
2111-75-3	Perillaldehyde		513.15
21112-37-8	2-tert-Butyl-1,4-dimethoxybenzene	343.4	
21119-13-1	Ethanethioic acid, O-methyl ester		361.15
21124-13-0	1-Methyl-3-p-tolyltriazene	354.15	
21124-33-4	Ammonium diethyldithiocarbamate	336.15	
21124-40-3	α-Amino-2-thiopheneacetic acid	507.65	
21129-09-9	1,2-Tetradecanediol	341.4	
21129-18-0	Propanoic acid, manganese(2+) salt (2:1)	559.15	
21129-27-1	p-Menthan-1-ol		481.65
2113-05-5	Imidodicarbonimidic diamide, N-(3-chlorophenyl)-, hydrochloride (1:1)	481.15	
2113-47-5	N-[1,1′-Biphenyl]-2-ylacetamide	394.15	628.15
2113-51-1	2-Iodobiphenyl	329.15	
2113-53-3	2-(1,1-Dimethylethyl)-1,1′-biphenyl	305.65	
2113-54-4	N-[1,1′-Biphenyl]-3-ylacetamide	419.15	
2113-57-7	3-Bromobiphenyl	366.65	573.15
2113-58-8	3-Nitrobiphenyl	335.15	500.15
2113-61-3	[1,1′-Biphenyl]-4-amine, hydrochloride (1:1)	373.15	
2113-68-0	[1,1′-Biphenyl]-4-sulfonic acid	412.15	
2113-93-1	3-Acetyltetramic acid	428.15	
21132-59-2	Pazoxide	618.15	
2114-00-3	α-Bromopropiophenone		520.65
2114-02-5	Amidinothiourea	444.15	
2114-11-6	2-Propen-1-yl carbamate	293.15	
2114-18-3	2-Chloroethyl carbamate	349.15	
2114-42-3	Allylcyclohexane	603.15	405.15
21151-56-4	1-Chloro-4-(chloromethoxy)benzene	301.9	
211513-37-0	Dalcetrapib	336.4	
2116-55-4	α-Amino-3-hydroxy-4-oxo-1(4H)-pyridinepropanoic acid	499.65	
2116-62-3	2-(2-Phenylethyl)pyridine	270.15	562.15
2116-65-6	4-Benzylpyridine	285.55	561.15
2116-84-9	Phenyltris(trimethylsiloxy)silane	171.15	538.15
21160-95-2	Methylammonium methyldithiocarbamate	387.65	
21161-11-5	2-Nitro-1,3-benzenedicarboxylic acid	573.15	
21165-77-5	Methyl N-[[4-[2-[(5-chloro-2-methoxybenzoyl)amino]ethyl]phenyl]sulfonyl]carbamate	463.15	
2117-11-5	4-Pentyn-2-ol		401.15
2117-28-4	1,1′-Methylenebis[1,1,1-trimethylsilane]	202.15	405.65
2117-34-2	Triethylmethoxysilane		414.15
2117-36-4	Tributylchlorogermane		542.65
2117-50-2	1,1′-(1,2-Ethynediyl)bis[1,1,1-trimethylstannane]	331.4	
2117-69-3	Dichlorodiphenylplumbane	476.65	
21182-65-0	2-Hexadecyl-5-methyl-1,4-benzenediol	400.65	
21187-98-4	Gliclazide	454.15	
2119-75-7	Fluperolone acetate	525.15	
211915-06-9	Dabigatran etexilate	401.65	
21193-75-9	D-Galactal	372.65	
21193-86-2	1-Pyrrolidineethanol, 1-acetate		358.65
21198-18-5	4-Cyclohexylthiosemicarbazide	415.15	
21198-79-8	Hydrazinecarboselenoamide	453.15	
212-74-8	Tetraphenylene	506.15	
2120-70-9	Phenoxyacetaldehyde	434.15	
21200-24-8	Indolmycin	356.15	
21202-05-1	N-1H-Benzimidazol-2-ylacetamide	575.65	
21205-24-3	2-Nitro-1-phenylethanone oxime	367.65	
2121-12-2	Ungeremine	544.15	
2121-67-7	2,4-Dimethylpentanedioic acid	379.65	
21211-22-3	3-Chlorobenzo[b]thiophene-2-carboxylic acid	536.15	
21211-65-4	Dipyrrylmethane	348.15	
21213-89-8	1-(4-Hydroxyphenyl)-2-(methylamino)ethanone	420.65	
212141-54-3	Vatalanib	483.65	
212142-18-2	Vatalanib succinate	468.15	
21216-78-4	Piperidinium, 1-[(2,2-diphenyl-1,3-dioxolan-4-yl)methyl]-1-methyl-, iodide (1:1)	433.15	
2122-19-2	4-Methylimidazolidine-2-thione	376.15	
2122-29-4	(+)-Retamine	441.15	
2122-63-6	4-Amino-3-iodobenzoic acid	474.65	
2122-70-5	Ethyl 1-naphthylacetate	361.65	
2122-77-2	Fenteracol	338.65	
21221-93-2	[3,5-Bis(trifluoromethyl)phenyl]phenylmethanone	383.05	
21222-05-9	3,3′-Dinitrobenzophenone	428.15	
21228-90-0	Methyl sulfate(1-)	383.65	
2123-19-5	13-Pentacosanone	347.6	
2123-20-8	19-Heptatriacontanone	363.8	
2123-35-5	4,4′-(Methoxymethylene)bis[N,N-dimethylbenzenamine]	346.15	
21232-47-3	3,3′,4,4′-Tetrachloroazoxybenzene	412.4	
21236-74-8	4-Methyl-2-(1-piperidinylmethyl)phenol	318.15	
2124-31-4	1-[4-(Dimethylamino)phenyl]ethanone	376.15	
2124-57-4	Menaquinone 7	327.15	
21240-34-6	4,5-Diphenyl-1,3-dioxol-2-one	348.15	
21245-02-3	4-(Dimethylamino)benzoic acid 2-ethylhexyl ester	516.15	
21245-08-9	[(Dioctylphosphinyl)methyl]dioctylphosphine oxide	330.65	
21248-00-0	6-Bromobenzo[a]pyrene	496.15	
21248-01-1	6-Chlorobenzo[a]pyrene	484.15	
2125-49-7	1-Propanone, 3-(dimethylamino)-1-(4-methoxyphenyl)-, hydrochloride (1:1)	452.15	
2125-51-1	1-Propanone, 3-(dimethylamino)-1-(4-hydroxyphenyl)-, hydrochloride (1:1)	465.15	
212500-03-3	Methyl 2-(4-aminophenyl)-1,2-dihydro-1-oxo-7-(2-pyridinylmethoxy)-4-(3,4,5-trimethoxyphenyl)-3-isoquinolinecarboxylate sulfate (1:1)	495.15	
21251-12-7	Benzoylazanyl acetate	366.15	
21253-58-7	4-[(2,4-Diamino-5-pyrimidinyl)methyl]-2,6-dimethoxyphenol	540.65	
21255-69-6	O-Desmethylangolensin	412.65	
21256-18-8	Oxaprozin	434.15	
21258-04-8	N-[[(3-Chlorophenyl)amino]thioxomethyl]benzamide	413.15	
21258-05-9	N-[[(2-Chlorophenyl)amino]thioxomethyl]benzamide	418.65	
21259-42-7	Methyl 2-oxo-2H-1-benzopyran-3-carboxylate	389.65	
21259-75-6	Methanethiol, trifluoro-, mercury(2+) salt	310.65	
21259-76-7	Mercaptomerin sodium	425.65	
2126-91-2	Benzenebutanoic acid, α,2-diamino-γ-oxo-, sulfate (1:1)	447.65	
21260-46-8	(OC-6-11)-Tris(N,N-dimethylcarbamodithioato-κS,κS′)bismuth	539.65	
21260-54-8	N,N-Dibutyl-N′-methylurea	317.7	
2127-01-7	Clorexolone	540.15	
2127-03-9	2,2′-Dipyridyl disulfide	324.65	
2127-10-8	2,2′-Dithiobis[5-nitropyridine]	423.65	
2127-74-4	1,2,2,2-Tetrafluoroethanesulfonyl fluoride		335.65
21272-85-5	[(Nitromethyl)sulfonyl]benzene	424.15	395.65
21277-16-7	2-Oxo-4-imidazolidinecarboxylic acid	458.15	
21279-79-8	1-(3-Chloropropyl)-4-(4-methoxyphenyl)piperazine	327.65	
2128-60-1	Pronuciferine	401.15	
2128-93-0	4-Phenylbenzophenone	375.15	
21284-11-7	Trichothec-9-en-4-ol, 7,8:12,13-diepoxy-, (2Z)-2-butenoate, (4β,7β,8β)-	428.65	
212844-54-7	Purvalanol B	329.05	
21285-27-8	1-[(Phenylmethoxy)carbonyl]-L-prolyl-L-valine	407.65	
21286-54-4	10-Camphorsulfonyl chloride	341.15	
21288-61-9	Methyl (1R,2R,4S)-2-ethyl-1,2,3,4,6,11-hexahydro-2,4,5,7,10-pentahydroxy-6,11-dioxo-1-naphthacenecarboxylate	486.65	
2129-89-7	Methyldiphenylphosphine oxide	382.65	
21290-16-4	Ajmalan-17,21-diol, (17R,21α)-, compd. with 5-ethyl-5-phenyl-2,4,6(1H,3H,5H)-pyrimidinetrione	398.15	
21292-49-9	(OC-6-21)-Dioxobis(2,4-pentanedionato-κO2,κO4)tungsten	474.45	
21293-29-8	Abscisic acid	433.15	
21296-92-4	2,3,5-Trimethyl-1H-indole	394.65	570.15
21296-94-6	2,3-Dimethyl-5-nitro-1H-indole	459.15	
21298-55-5	2-(3-Thienyl)pyridine	525.35	
213-46-7	Picene	641.15	792.15
2130-56-5	3,3′-Dicarboxy-4,4′-diaminobiphenyl	573.15	
2130-96-3	N-[(1,1-Dimethylethoxy)carbonyl]-O-(phenylmethyl)-L-tyrosine	381.65	
213027-19-1	Cipralisant	447.15	
2131-18-2	Pentadecylbenzene	295.15	646.15
2131-38-6	1,3,7-Trimethylnaphthalene	285.15	405.15
2131-39-7	1,3,5-Trimethylnaphthalene	320.15	
2131-41-1	1,4,5-Trimethylnaphthalene	336.15	418.15
2131-42-2	1,4,6-Trimethylnaphthalene	283.15	414.15
2131-55-7	4-Chlorophenyl isothiocyanate	319.15	522.65
2131-59-1	3-Bromophenyl isothiocyanate		529.15
2131-60-4	4-Isothiocyanatophenol	453.15	419.15
2131-61-5	4-Nitrophenyl isothiocyanate	384.15	410.65
2131-62-6	4-Isothiocyanatobenzoic acid	482.65	
2131-63-7	3-Isothiocyanatobenzoic acid	438.15	
2131-64-8	4-Isothiocyanato-N,N-dimethylbenzenamine	346.15	
21312-10-7	Acetylsulfamethoxazole	493.65	
21314-17-0	1,5-Dihydro-1-phenyl-4H-pyrazolo[3,4-d]pyrimidin-4-one	572.15	
21320-90-1	2-Methyl-4-nitrobenzenesulfonyl chloride	379.15	
21324-40-3	Lithium hexafluorophosphate	467.44	
21327-86-6	2-Chloro-6-methylbenzoic acid	381.15	
2133-34-8	(-)-Azetidinecarboxylic acid	485.15	
2133-40-6	L-Proline, methyl ester, hydrochloride (1:1)	344.15	
2133-80-4	5-Amino-3,6-dihydro-3-β-D-ribofuranosyl-7H-1,2,3-triazolo[4,5-d]pyrimidin-7-one	524.15	
21331-43-1	2-Amino-4-(2-naphthyl)thiazole	426.65	
21331-80-6	Phosphonium, [2-(dimethylamino)ethyl]triphenyl-, bromide (1:1)	477.65	
21331-86-2	N,N-Bis(dimethylsilyl)-1,1-dimethylsilanamine		426.65
21335-43-3	1-Chloromethanesulfonamide	346.65	
21339-55-9	1-Methyl-L-tryptophan	497.15	
2134-24-9	N-Benzoyl-DL-phenylalanine β-naphthyl ester	429.65	
2134-91-0	4-Hydroxy-5-methoxy-1,3-benzenedicarboxylic acid	549.15	
2134-98-7	2,6-Methano-1H-azecino[5,4-b]indole-14-carboxylic acid, 5-ethyl-2,3,4,5,6,7,8,9-octahydro-3-methyl-8-oxo-, methyl ester, (2S,5S,6S,14S)-	491.15	
21340-68-1	Methyl 2-[(4′-chloro[1,1′-biphenyl]-4-yl)oxy]-2-methylpropanoate	363.15	
21346-21-4	3-(4-Hydroxyphenyl)-2-thioxo-4-thiazolidinone	454.15	
2135-14-0	(11β,16α)-9-Fluoro-11-hydroxy-16,17-[(1-methylethylidene)bis(oxy)]pregna-1,4-diene-3,20-dione	568.15	
2135-17-3	Flumetasone	476.15	
21351-39-3	Urea sulfate	351.35	
21351-43-9	Pyridinium, 4-ethenyl-1-methyl-, iodide (1:1)	562.65	
21351-79-1	Cesium hydroxide	545.45	
21352-21-6	N-2-Pyrazinylacetamide	405.65	
21352-22-7	2-Methyl-3-quinolinamine	432.65	
21354-01-8	N-(2-Nitrosophenyl)acetamide	380.65	
2136-69-8	2-Methyl-2-phenyl-1H-indene-1,3(2H)-dione	426.15	
2136-71-2	Ethylene glycol monohexadecyl ether	325.65	
2136-72-3	2-(Octadecyloxy)ethanol	322.65	
2136-75-6	2-(Triphenylphosphoranylidene)acetaldehyde	460.15	
2136-79-0	Chlorthal	603.15	
2136-81-4	1-Chloro-3-(trichloromethyl)benzene	273.75	528.15
2136-89-2	o-Chlorobenzotrichloride	302.55	537.45
21362-69-6	Mepitiostane	372.65	
21363-18-8	Viminol		435.65
21364-46-5	Isoquinoline, hydrochloride (1:1)	466.15	
21366-63-2	Cannabicyclol	418.65	
213697-53-1	2′-(Dicyclohexylphosphino)-N,N-dimethyl[1,1′-biphenyl]-2-amine	390.15	
2137-18-0	Gestonorone	478.15	
2137-92-0	Thiocyanic acid, 4-nitrophenyl ester	406.15	
21370-71-8	rel-(4aR,8aS)-Octahydro-1(2H)-naphthalenone	306.15	386.15
2138-20-7	4-Cyclohexylresorcinol	397.15	
2138-22-9	4-Chlorocatechol	363.65	
2138-24-1	Tetrahexylammonium iodide	375.15	
2138-43-4	4-Isopropylcatechol	351.15	544.15
2138-49-0	3,5-Bis(1-methylethyl)-1,2-benzenediol	364.65	
21388-77-2	4-[(4-Methoxyphenyl)methyl]phenol	356.65	
2139-25-5	1-Piperidineethanol, α-(5-phenyl-3-isoxazolyl)-, 2-hydroxy-1,2,3-propanetricarboxylate (2:1)	413.15	
2139-47-1	Nifenazone	526.15	
21391-98-0	Phellandral		496.15
21392-57-4	5,7-Dimethoxyflavone	389.15	
21394-42-3	N-(1-Oxooctadecyl)methionine	365.15	
21394-44-5	N-(1-Oxododecyl)methionine	342.65	
21394-86-5	1,3,5-Triazine, 2-[4-(1,3-benzodioxol-5-ylmethyl)-1-piperazinyl]-4-methoxy-, hydrochloride (1:1)	503.15	
21397-07-9	2-Chloro-1-fluoro-3-nitrobenzene		511.15
21397-11-5	2-Fluoro-3-nitrobenzenamine	387.65	
21398-89-0	2-(Methoxymethyl)-2-methyl-1,3-propanediol		467.65
214-17-5	Benzo[b]chrysene	566.15	
214-63-1	Dibenzo[de,mn]naphthacene	535.15	
214-87-9	Benzo[j]heptaphene	683.15	
2140-11-6	2′,3′-O-(1-Methylethylidene)inosine	546.65	
2140-46-7	25-Hydroxycholesterol	451.15	
2140-61-6	5-Methylcytidine	486.15	
21400-25-9	1,1,2-Trichloro-1-propene		391.15
21402-12-0	6,6′-(2-Methyl-1,3-propanediyl)bis[1,3,5-triazine-2,4-diamine]	511.15	
21402-26-6	4-Bromo-3-chloroaniline	339.65	
21403-95-2	1-(3,4-Dihydro-2-naphthalenyl)pyrrolidine	351.65	
21406-61-1	Phosphonium, pentyltriphenyl-, bromide (1:1)	439.4	
21409-25-6	2-(Diphenylmethoxy)acetic acid	372.65	
2141-09-5	(+)-Magnoflorine	481.15	
2141-42-6	1,2,3,4-Tetrahydroanthracene	377.15	
2141-62-0	3-Ethoxypropanenitrile	322.05	444.15
21411-42-7	2,4,6-Trimethylbenzenemethanethiol	319.65	
21411-53-0	Virginiamycin M1	439.15	
21416-67-1	Razoxane	511.15	
21418-54-2	Ethyl α-cyano-3-thiopheneacetate	381.15	
2142-01-0	2-(Phenylmethyl)-1H-isoindole-1,3(2H)-dione	389.15	
2142-06-5	1-(Phenylmethyl)-2,5-pyrrolidinedione	377.4	
2142-63-4	3-Bromoacetophenone	280.65	406.15
2142-67-8	1-(2-Ethoxyphenyl)ethanone	311.15	
2142-68-9	2′-Chloroacetophenone	299.65	
2142-73-6	1-(2,5-Dimethylphenyl)ethanone	255.05	505.65
2142-76-9	1-(2,6-Dimethylphenyl)ethanone	296.75	
21420-58-6	Baeocystin	529.15	
2143-98-8	4-(Dimethylamino)benzaldehyde azine	530.15	
21434-14-0	1,2-Dihydro-1-phenyl-3H-1,2,4-triazole-3-thione	465.15	
21434-91-3	Capobenic acid	395.15	
21436-03-3	(+)-trans-1,2-Diaminocyclohexane	314.65	
2144-00-5	1-Naphthalenecarboxaldehyde, 2-(1-naphthalenylmethylene)hydrazone	427.65	
2144-08-3	2,3,4-Trihydroxybenzaldehyde	431.15	
2144-37-8	Methyl 5-chloromethyl-2-furoate	305.65	
2144-45-8	Peroxydicarbonic acid, C,C′-bis(phenylmethyl) ester	374.15	
2144-54-9	3,3,4,4,5,5,6,6,7,7,8,8,9,9,10,10,11,11,12,12,12-Heneicosafluorododecyl 2-methyl-2-propenoate		370.65
21440-97-1	Brofoxine	477.15	
21446-87-7	Pyrimidine, 1,4,5,6-tetrahydro-1-methyl-2-[2-(2-thienyl)ethenyl]-, hydrochloride (1:1)	467.65	
21450-52-2	(TB-5-12)-Bromotetraphenylantimony	491.15	
21452-14-2	Amicarthiazol	495.65	
2146-36-3	Dodecahydroacenaphthylene	293.15	
2146-37-4	Ethylidenecyclopentane	143.65	388.15
2146-38-5	Ethylcyclopentene	154.65	379.45
2146-71-6	Vinyl laurate		396.15
21461-12-1	5-[2-(4-Chlorophenyl)diazenyl]-2-hydroxybenzoic acid	516.15	
21462-39-5	Clindamycin hydrochloride	417.15	
21464-76-6	2-Ethyl-4-methyl-1,3-dioxane		412.15
2147-83-3	1,3-Dihydro-1-(1,2,3,6-tetrahydro-4-pyridinyl)-2H-benzimidazole-2-one	460.15	
21472-93-5	1,3-Diethyl-5-methyl-2,4(1H,3H)-pyrimidinedione	339.15	
21478-01-3	Hexadecanoic acid, 2-[(dichloroacetyl)amino]-3-hydroxy-3-[4-(methylsulfonyl)phenyl]propyl ester, [R-(R*,R*)]-	375.15	
2148-56-3	2-Amino-6-chlorobenzoic acid	432.15	
21482-59-7	Tetramethyldiborane(6)		334.15
2149-70-4	Nω-Nitro-L-arginine	500.65	
21490-63-1	trans-2,3-Dimethyloxirane	188.15	329.65
21498-08-8	Lofexidine hydrochloride	495.15	
21499-66-1	Bruceine D	560.65	
215-58-7	Benzo[b]triphenylene	479.15	797.15
215-62-3	Dibenz[a,c]acridine	476.15	
215-64-5	Dibenzo[a,c]phenazine	494.15	
2150-02-9	2-Mercaptoethyl ether		490.15
2150-11-0	3′,4′,7-Trihydroxyflavone	593.15	
2150-37-0	Methyl 3,5-dimethoxybenzoate	316.15	
2150-38-1	Methyl 3,4-dimethoxybenzoate	333.95	556.15
2150-41-6	Benzoic acid, 2,4-dimethoxy-, methyl ester		567.65
2150-42-7	Methyl 2,3-dimethoxybenzoate	320.15	
2150-43-8	Methyl 3,4-dihydroxybenzoate	407.65	
2150-44-9	3,5-Dihydroxybenzoic acid methyl ester	437.15	
2150-45-0	Benzoic acid, 2,6-dihydroxy-, methyl ester	341.65	
2150-46-1	Methyl 2,5-dihydroxybenzoate	359.15	
2150-47-2	Methyl 2,4-dihydroxybenzoate	392.65	
2150-52-9	1,5-Bis(2-hydroxyphenyl)penta-1,4-dien-3-one	1863.15	
2150-55-2	2-Aminothiazoline-4-carboxylic acid	485.15	
2150-58-5	4-[[4-(Dimethylamino)phenyl]imino]-2,5-cyclohexadien-1-one	420.15	
2150-95-0	N-(3,4-Dichlorophenyl)butanamide	369.65	
21507-41-5	Androst-1-ene-3,17-dione	412.65	
21510-43-0	2-(4-Bromophenyl)-5-phenyl-1,3,4-oxadiazole	440.15	
21511-25-1	Geraldol	580.65	
2152-02-5	Fluorenyl, 9-(9H-fluoren-9-ylidenephenylmethyl)-	462.65	
2152-34-3	Pemoline	529.15	
2152-44-5	Betamethasone valerate	456.65	
2152-56-9	Arabitol	376.15	
2152-70-7	1,5-Bis(5-nitro-2-furanyl)-1,4-pentadien-3-one	472.15	
21520-88-7	5-(Phenoxymethyl)-1,3,4-oxadiazol-2-amine	432.65	
21520-98-9	5-[1-(4-Chlorophenoxy)ethyl]-1,3,4-oxadiazol-2-amine	434.65	
21521-73-3	Carbonothioic acid, S-[5-[(ethoxycarbonyl)amino]-1,3,4-thiadiazol-2-yl] O-ethyl ester	424.15	
21524-23-2	3-(2-Phenyldiazenyl)[1,1′-biphenyl]-4-ol	402.15	
215247-95-3	Pigment Violet 23	658.15	
21528-24-5	5-(Dimethylamino)-2-[4-(dimethylamino)benzoyl]benzoic acid	542.15	
21528-31-4	2-[4-(Dimethylamino)benzoyl]benzoic acid	481.65	
2153-08-4	2-Chloro-N-(4-ethoxyphenyl)acetamide	418.15	
215303-72-3	4-[4-(4-Fluorophenyl)-1-(3-phenylpropyl)-5-(4-pyridinyl)-1H-imidazol-2-yl]-3-butyn-1-ol	397.15	
21532-74-1	1,10-Phenanthroline, perchlorate (1:1)	468.15	
21535-43-3	2-Chloro-N-[2-(phenylmethyl)phenyl]acetamide	386.65	
21535-47-7	Mianserin hydrochloride	556.15	
21535-97-7	3-Methylbenzofuran		470.15
21538-06-7	1,3,5-Benzenetrisulfonyl trichloride	459.15	
2154-02-1	Metofoline	383.65	
2154-67-8	3-Carboxy-2,2,5,5-tetramethylpyrroline-1-oxyl	483.65	
2154-68-9	3-Carboxy-2,2,5,5-tetramethyl-1-pyrrolidinyloxy	466.15	
21542-96-1	Dimethylbehenylamine	314.15	
21545-54-0	1-Cyclohexyl-3-(2-morpholinoethyl)thiourea	401.65	
21548-73-2	Silver sulfide (Ag2S)	1110.15	
2155-70-6	Tributyltin methacrylate	294.15	
2155-73-9	Tributylstibine		404.15
2155-94-4	N,N-Dimethylallylamine	334.15	337.15
2155-96-6	Diphenylvinylphosphine	344.15	
21553-46-8	4-Methoxy-3,5-dimethylbenzoic acid	465.65	
21556-86-5	N-(3-Hydroxyphenyl)propanamide	455.15	
2156-11-8	2-(2-Naphthalenyl)-1H-indene-1,3(2H)-dione	453.15	
2156-29-8	Pyridinium, 2-[2-[4-(dimethylamino)phenyl]ethenyl]-1-methyl-, iodide (1:1)	548.15	
2156-71-0	1-Chloropiperidine	397.15	
2156-97-0	Lauryl acrylate	277.15	
21561-99-9	N-Methyl-N-nitroso-N′-phenylurea	368.65	
21564-91-0	1,5-Dimethyltetralin		512.15
21564-92-1	1,2,3,4-Tetrahydro-2,3-dimethylnaphthalene	268.15	
21565-22-0	N-(2,4-Dinitrophenyl)-2,4,6-trinitrobenzenamine	469.65	
2157-19-9	Endodiol	472.15	
2157-31-5	2,2-Dimethyl-1,3-pentanediol	334.15	
2157-39-3	5-Chloro-1,3-benzenedicarboxylic acid	552.65	
2157-52-0	Fluorenone oxime	406.65	
2157-56-4	2,4-Pentanedione, 2,4-dioxime	422.65	
21570-35-4	2-Methyl-4-heptanol	192.15	437.15
21573-31-9	7-Octenal	368.15	
21577-80-0	1-Dodecyl 1,2-benzenedicarboxylate	322.9	
21578-97-2	2-Ethoxyethyl N-(7-hydroxy-1-naphthalenyl)carbamate	375.15	
21579-78-2	4-Methyl-α,α-diphenyl-1-piperazineethanol	356.65	
2158-02-3	4-Morpholinecarboxamide	384.65	
2158-03-4	1-Piperidinecarboxamide	370.65	
2158-04-5	N-(2-Phenylethyl)urea	385.15	
2158-08-9	N-Octadecylurea	374.15	
2158-09-0	Dodecylurea	351.15	
2158-10-3	N-Octylurea	375.65	
2158-11-4	Hexylurea	382.65	
2158-14-7	4-Acetamidobenzenesulfonyl azide	380.15	
2158-76-1	2-[Bis(2-hydroxyethyl)amino]-2,5-cyclohexadiene-1,4-dione	434.15	
21581-82-8	1,1,2,3,4,4,4-Heptafluoro-3-(trifluoromethyl)-1-butene		303.15
21583-31-3	1-(2,4-Dihydroxyphenyl)-3-(4-hydroxy-3-methoxyphenyl)-2-propen-1-one	483.15	
21583-38-0	Butanedioic acid, 1-(2-hydroxyethyl) ester	361.65	
21585-16-0	2,3-Dihydro-5-(2-hydroxyethyl)-6-methyl-2-thioxo-4(1H)-pyrimidinone	539.15	
21586-90-3	(1β,2α,11β,12α,15β)-13,20-Epoxy-1,2,11,12,14,15-hexahydroxypicras-3-en-16-one	535.15	
21587-39-3	1-(5-Methoxy-2-benzofuranyl)ethanone	353.15	
21590-91-0	2,3-Dihydro-2-methyl-3-[[4-[2-(1-piperidinyl)ethoxy]phenyl]amino]-1H-isoindol-1-one	388.65	
21590-92-1	2-Ethyl-2,3-dihydro-3-[[4-[2-(1-piperidinyl)ethoxy]phenyl]amino]-1H-isoindol-1-one	379.65	
215917-77-4	N-[2-[[(Phenylamino)carbonyl]amino]phenyl]benzenesulfonamide	336.15	
21593-77-1	(+)-S-Allylcysteine	491.65	
21595-58-4	Selenoacetamide	399.4	
21598-06-1	5-Hydroxyindole-2-carboxylic acid	519.15	
2160-63-6	5-Bromothiophene-2-carboxaldehyde oxime	411.65	
2160-93-2	tert-Butyldiethanolamine	462.15	
2160-94-3	3-Cyclohexene-1,1-dimethanol	365.15	
21609-90-5	Leptophos	343.55	
2161-40-2	2-Methoxy-2,4,6-cycloheptatrien-1-one	349.15	
2161-85-5	4,6-Diacetylresorcinol	455.15	
2161-86-6	2,4-Diacetylphloroglucinol	427.15	
2161-90-2	1-Methoxy-1,3-cyclohexadiene	369.65	418.15
21617-12-9	4,8-Dichloroquinoline	428.65	
21617-15-2	7-Chloro-2,3-dihydro-4(1H)-quinolinone	404.15	
2162-63-2	[4-(Decyloxy)-2-hydroxyphenyl]phenylmethanone	323.15	
2162-73-4	2,4-Diisocyanato-1,3,5-tris(1-methylethyl)benzene	388.15	
2162-74-5	Bis(2,6-diisopropylphenyl)carbodiimide	321.4	
2162-86-9	1-Ethyl-3-methylpiperidine		419.15
2162-92-7	1,2-Dichlorohexane		446.15
2162-98-3	1,10-Dichlorodecane	288.75	
2162-99-4	1,8-Dichlorooctane		514.15
21622-08-2	1-Cyclopentene-1-acetic acid	393.65	
21626-69-7	N-[4-(4-Morpholinylsulfonyl)phenyl]acetamide	377.15	
21626-70-0	4-(Morpholinosulfonyl)aniline	490.15	
21626-89-1	Diftalone	496.65	
2163-00-0	1,6-Dichlorohexane		477.15
2163-42-0	2-Methyl-1,3-propanediol	182.15	468.15
2163-48-6	Propanedioic acid, 2-propyl-, 1,3-diethyl ester		494.15
2163-69-1	Cycluron	411.15	
2163-80-6	Monosodium methanearsonate	408.15	
2163-97-5	4-Chloro-1-(methylsulfonyl)-2-nitrobenzene	428.65	
21633-79-4	1,3-Diethyl 2-(1-oxobutyl)propanedioate	354.4	
21637-25-2	Isoquercitrin	499.15	
21638-36-8	Nifurimide	513.4	
216393-66-7	1,2,5-Trichloro-3-iodobenzene	329.15	
2164-08-1	Lenacil	589.15	
2164-09-2	Chloranocryl	401.15	
2164-17-2	Fluometuron	436.9	553.15
2164-67-2	2-Amino-4-pyrimidinemethanol	418.15	
21640-48-2	3-(3-Chlorophenyl)propanoic acid	346.65	