CAS	name	Tm	Tb
2012-74-0	2-(4-Chlorophenyl)-3-methylbutyric acid	362.65	
20120-24-5	Ethyl 3-(4-morpholino)propionate	402.65	
20121-96-4	Anteisohexadecanoic acid	339.15	
20127-07-5	6-Oxaspiro[4.5]decan-7-one	302.65	
20128-12-5	2,3-Quinoxalinedimethanol, 2,3-diacetate	365.65	
2013-12-9	D-Norvaline	496.65	
20132-75-6	Methyl 4-(aminocarbonyl)-2-nitrobenzoate	437.65	
20133-19-1	1-(3,4-Dimethoxyphenyl)-1,2-propanediol	398.15	
20139-54-2	N-(3-Chloro-2-methylphenyl)-3-oxobutanamide	370.65	
20139-55-3	N-(4-Chloro-2-methylphenyl)-3-oxobutanamide	375.15	
2014-83-7	2,6-Dichlorobenzyl chloride	312.65	408.15
20142-88-5	2-(4-Nitrophenoxy)acetyl chloride	359.65	
20147-55-1	4-Nitro-N-phenylbenzenecarbohydrazonoyl chloride	459.15	
2015-14-7	N-[[4-(Aminosulfonyl)phenyl]methyl]acetamide	450.15	
2015-19-2	5-Amino-2-chlorobenzenesulfonamide	441.15	
2015-28-3	1-Piperazineethanol, 4-[3-(2-chloro-10H-phenothiazin-10-yl)propyl]-, hydrochloride (1:2)	495.65	
2015-56-7	Phosphoramidic acid, diphenyl ester	422.9	
20150-89-4	5,7-Dimethylquinoline	295.15	547.15
20153-49-5	Fluorotripentylstannane	650.15	
20153-50-8	Fluorotrihexylstannane	671.65	
20155-05-9	Androst-4-en-3-one, 17-(benzoyloxy)-19-hydroxy-, (17β)-	516.15	
2016-36-6	Choline salicylate	322.65	
2016-37-7	1-Undecanamine, hydrochloride (1:1)	463.15	
2016-39-9	1-Nonanamine, hydrochloride (1:1)	458.65	
2016-42-4	Tetradecylamine	356.25	564.35
2016-45-7	Hexadecyldimethylammonium chloride	471.15	
2016-55-9	1-Tridecanamine, hydrochloride (1:1)	573.15	
2016-56-0	Dodecylamine, acetate	341.9	
2016-57-1	Decylamine	290.15	493.65
2016-88-8	Amiloride hydrochloride	566.65	
20163-90-0	2,3-Dibromo-1,4-butanediol	407.15	
20167-22-0	Carbamimidothioic acid, (2-amino-4-thiazolyl)methyl ester, hydrochloride (1:2)	527.65	
20168-99-4	Cinmetacin	443.15	
20170-20-1	Difenamizole	398.65	
20170-32-5	3-(3′,5′-Di-tert-butyl-4′-hydroxyphenyl)propionic acid	445.65	
20174-68-9	2-Hydrazino-4-methylbenzothiazole	441.15	
2018-61-3	N-Acetyl-L-phenylalanine	445.15	
20184-66-1	3,4-Dinitrocatechol	420.65	
20184-94-5	Methyl 1-methylhydrazinecarbodithioate	367.65	
20187-55-7	Bendazac	433.15	
2019-25-2	1,3,5-Triazine-2,4-diamine, N2-(4-chlorophenyl)-, hydrochloride (1:1)	500.65	
2019-42-3	Dequalinium iodide	580.65	
2019-68-3	Atrolactamide	336.15	
20190-03-8	Carbamic acid, N-cyclohexyl-, compd. with cyclohexanamine (1:1)	385.65	
20193-20-8	Ethylpropylamine	351.15	354.15
20193-21-9	N-Propyl-1-butanamine		407.15
20193-56-0	Tungsten chloride (WCl3)	823.15	
20193-94-6	Bis[(4-methylphenyl)methyl] disulfide	319.65	
20194-48-3	14-Methyl-1-pentadecanol	303.15	
20196-21-8	3-Thiomorpholinone	361.15	
20196-67-2	Sinalbin	374.15	
20196-89-8	Kaempferol-7-O-α-L-rhamnoside	444.65	
20198-19-0	2-Amino-4(1H)-quinazolinone	588.15	
20199-04-6	Benzenecarbothioamide, S-oxide	407.15	
202-03-9	Aceanthrylene	368.65	
202-33-5	Benz[j]aceanthrylene	443.65	
202-94-8	11H-Benz[bc]aceanthrylene	396.05	
202-98-2	4H-Cyclopenta[def]chrysene	445.8	
20200-22-0	N-Methyl-2-nitro-4-(trifluoromethyl)aniline	347.15	
20200-64-0	1′,3′-Dihydro-1′,3′,3′-trimethyl-6,8-dinitrospiro[2H-1-benzopyran-2,2′-[2H]indole]	554.65	
20204-71-1	1-[(4-Methylphenyl)methyl]naphthalene	307.15	
20208-73-5	Butyrylglycine	340.65	
2021-21-8	3a,4,7,7a-Tetrahydro-2-methyl-1H-isoindole-1,3(2H)-dione	334.15	
2021-28-5	Ethyl 3-phenylpropanoate	396.15	520.35
2021-58-1	2-Thienylalanine	547.65	
20210-97-3	1,1′-(1,2-Ethanediyl) bis(2-hydroxybenzoate)	357.15	
2022-85-7	Flucytosine	569.15	
20224-09-3	2-(4-Methoxycinnamoyl)benzimidazole	464.15	
20224-10-6	2-Cinnamoylbenzimidazole	476.15	
20229-30-5	Methiothepin	354.15	
20229-56-5	Quercetin 4′-O-glucoside	513.65	
20230-89-1	Methanamine, N,N-dimethyl-, hydriodide	461.15	
20231-01-0	1,1′-(Dithiodicarbonothioyl)bis[4-methylpiperazine]	414.65	
20231-81-6	Uzarin	542.15	
20232-11-5	6-Methylindene		480.15
20232-39-7	Isoquinoline, 3,4-dihydro-6,7-dimethoxy-, hydrochloride (1:1)	348.65	
20234-13-3	2-[(5-Chloro-2-hydroxyphenyl)methylene]hydrazinecarbothioamide	563.15	
20236-82-2	Morphinan-6-ol, 6,7-didehydro-4,5-epoxy-3-methoxy-17-methyl-, 6-acetate, hydrochloride (1:1), (5α)-	406.65	
20237-98-3	2,6-Bis(4-azidobenzal)cyclohexanone	413.15	
2024-83-1	3,4-Dimethoxybenzonitrile	339.65	
2024-88-6	C,C′-[(1-Methylethylidene)di-4,1-phenylene] dicarbonochloridate	368.65	
20241-68-3	4-Amino-N-[3-[(2-hydroxyethyl)sulfonyl]phenyl]benzamide	424.15	
20241-74-1	1,4-Bis[(2,6-diethylphenyl)amino]-9,10-anthracenedione	472.15	
20244-61-5	2,4,4,6-Tetrabromo-2,5-cyclohexadien-1-one	397.15	
20244-70-6	Ethene, 1,2-diiodo-	344.75	
20248-08-2	δ-Amyrone	472.65	
2025-40-3	Ethyl benzylidenecyanoacetate	324.15	461.15
2025-56-1	Ethyl radical	371.65	
20255-94-1	1,2-Dimyristoyl-rac-glycerol	353.15	
202578-52-7	8-(2,4-Dichlorophenyl)-N-[2-methoxy-1-(methoxymethyl)ethyl]-2,7-dimethylpyrazolo[1,5-a]-1,3,5-triazin-4-amine	393.65	
2026-24-6	1-Phenanthrenemethanamine, 1,2,3,4,4a,9,10,10a-octahydro-1,4a-dimethyl-7-(1-methylethyl)-, (1R,4aS,10aR)-, acetate (1:1)	415.4	
2026-48-4	(+)-Valinol	304.65	345.65
20260-53-1	3-Pyridinecarbonyl chloride, hydrochloride (1:1)	437.65	
20262-55-9	Trimellitimide	529.15	
20265-96-7	4-Chloroaniline hydrochloride	342.65	
20265-97-8	Benzenamine, 4-methoxy-, hydrochloride (1:1)	458.65	
20266-00-6	2-Chloro-1-(1-pyrrolidinyl)ethanone	318.15	
20267-56-5	Ethanebis(thioic) acid, potassium salt (1:2)	546.65	
20268-51-3	7-Nitrobenz[a]anthracene	433.15	
20268-52-4	7-Chlorobenz[a]anthracene	420.45	
2027-17-0	2-Isopropylnaphthalene	287.65	541.35
2027-47-6	9-Octadecenoic acid	325.65	
20272-84-8	(3β)-3-Hydroxypregna-1,4-dien-20-one	445.65	
20273-24-9	2-Penten-1-ol		412.15
20273-27-2	[1,1′-Bicyclohexyl]-4-ylbenzene	357.65	
20274-94-6	4-Methylphenyl β-D-glucopyranoside	451.9	
20278-89-1	3,4,5-Trimethylheptane		435.65
20279-16-7	3-Dibenzofuranol	409.15	
20279-21-4	1,2,3,10b-Tetrahydrofluoranthene	348.15	477.15
2028-63-9	3-Butyn-2-ol	270.15	379.65
20281-00-9	Cesium oxide	277.48	
20283-92-5	Rosmarinic acid	443.4	
20285-70-5	5-[(4-Methoxyphenyl)methyl]-2,4-pyrimidinediamine	480.15	
20289-26-3	4-Benzyloxyindole	346.15	
2029-64-3	Carbamic acid, octyl ester	338.15	
2029-94-9	3,4-Diethoxybenzaldehyde	295.15	552.15
20290-84-0	Hexyl oleate	242.85	
20291-40-1	1-Methyl heptanedioate	278.15	
20291-75-2	1,2,8-Trimethylphenanthrene	415.65	
20292-01-7	Hexyl 2-mercaptoacetate		345.15
20292-08-4	2-Ethylhexyl laurate		576.15
20294-29-5	2,3-Dihydro-1-methyl-1H-inden-4-ol	329.65	
20294-30-8	2,3-Dihydro-2-methyl-1H-inden-4-ol	321.65	
20294-31-9	2,3-Dihydro-5-methyl-1H-inden-4-ol	373.15	
20294-32-0	6-Methyl-4-indanol	355.4	
20294-38-6	2,3-Dihydro-4-methyl-1H-inden-5-ol	370.9	
20294-39-7	2,3-Dihydro-6-methyl-1H-inden-5-ol	356.65	
20294-40-0	2,3-Dihydro-7-methyl-1H-inden-5-ol	356.65	
20294-76-2	1,2-Octadecanediol	352.4	
20295-64-1	Pyridine, 2-chloro-, 1-oxide, hydrochloride (1:1)	416.15	
202982-72-7	4-Chloro-3-iodophenol	351.15	
203-12-3	Benzo[ghi]fluoranthene	422.15	
203-20-3	Dibenz[a,j]aceanthrylene	454.3	
203-33-8	Benzo[a]fluoranthene	440.15	
203-42-9	Diacenaphtho[1,2-b:1′,2′-d]thiophene	552.15	
203-64-5	4H-Cyclopenta[def]phenanthrene	387.15	626.15
203-65-6	4H-Benzo[def]carbazole	446.65	
203-80-5	Phenalene	432.65	
2030-63-9	Clofazimine	484.15	
20300-02-1	2-Thiophenecarbothioamide	383.65	
20300-26-9	(+)-Gossypol	428.65	
20300-44-1	Deglucohellebrin	517.15	
20304-47-6	Calactin	549.15	
20305-51-5	Octanoic acid, (1,2-diethyl-1,2-ethanediyl)di-4,1-phenylene ester	350.65	
20306-75-6	N-Methylacetoacetamide	320.15	
20308-43-4	N-Pentylbenzamide	305.65	
2031-23-4	Piperazine, 1-(3-chloropropyl)-4-methyl-, hydrochloride (1:2)	529.15	
2031-62-1	Methyldiethoxysilane	371.15	367.65
2031-67-6	Triethoxymethylsilane		415.15
2031-79-0	2,2,4,4,6,6-Hexaethylcyclotrisiloxane	287.15	
2031-95-0	Ethane-1,1,1-d3	89.13	
20312-36-1	(-)-3-Phenyllactic acid	394.15	
20313-28-4	Vinyl-o-carborane	352.4	
20315-46-2	β-Ergocryptine	446.15	
20315-68-8	Pinoline	494.65	
20316-18-1	Lycodine	391.15	
20316-62-5	Tiliroside	524.65	
20316-84-1	Argyrophilic acid	444.15	
2032-13-5	5,5-Diphenyl-2,4-imidazolidinedithione	524.15	
2032-36-2	Thiobenzoylmorpholine	411.15	
2032-45-3	(2-Hydroxyphenyl)-4-morpholinylmethanethione	440.15	
2032-48-6	(2-Hydroxyphenyl)-1-piperidinylmethanethione	423.15	
2032-59-9	Aminocarb	366.65	
2032-65-7	Methiocarb	392.15	
20320-39-2	2-[[Bis(1-methylethyl)amino]carbonyl]benzoic acid	420.15	
20323-74-4	Benzoic acid, 2-amino-4,5-dimethoxy-, ethyl ester	361.15	
20324-33-8	1-[2-(2-Methoxy-1-methylethoxy)-1-methylethoxy]-2-propanol		523.15
20326-12-9	1-(3-Chlorophenyl)-4-[2-(5-methyl-1H-pyrazol-3-yl)ethyl]piperazine	379.15	
20329-82-2	Hydrazine, (3,4-dimethoxyphenyl)-, hydrochloride (1:?)	431.15	
2033-24-1	2,2-Dimethyl-1,3-dioxane-4,6-dione	367.15	
2033-42-3	1-Iodo-2-naphthalenol	367.65	
2033-45-6	4-Iodo-3,5-dimethyl-1H-pyrazole	410.15	
2033-76-3	1-(2-Bromoethoxy)-4-chlorobenzene	313.65	
2033-89-8	3,4-Dimethoxyphenol	352.65	442.15
2033-94-5	2-Methyl-1-phenyl-3-butyne-1,2-diol	336.65	
20332-10-9	Diphenylthioxostannane	454.65	
20332-12-1	2-Octadecyl-1H-isoindole-1,3(2H)-dione	353.65	
20333-39-5	Ethyl methyl disulfide	167.24	339.75
20334-43-4	Ditelluride, dimethyl		469.15
20336-95-2	Decanoic acid, lithium salt (1:1)	514.65	
20336-96-3	Tetradecanoic acid, lithium salt (1:1)	493.65	
2034-22-2	2,4,5-Tribromoimidazole	491.15	
2034-24-4	3-(2-Hydroxyethyl)-3H-1,2,3-triazolo[4,5-d]pyrimidine-5,7(4H,6H)-dione	545.65	
2034-61-9	2-Hydroxy-1-(4-hydroxy-3-methoxyphenyl)-1-propanone	382.65	
2034-69-7	Daphnoretin	522.65	
2034-94-8	(17β)-17-(3-Cyclohexyl-1-oxopropoxy)androst-4-en-3-one	352.15	
20348-09-8	2H-Pyrido[3,2-b]-1,4-oxazin-3(4H)-one	464.15	
20348-16-7	2-Amino-6-methyl-3-pyridinol	426.9	
2035-15-6	(-)-Maackiain	451.9	
2035-72-5	2-Hydroxy-4-(methacryloyloxy)benzophenone	350.65	
2035-75-8	Adipic anhydride	335.15	
2035-89-4	Formaldehyde, dimethylhydrazone	170.15	
2035-99-6	Isoamyl octanoate		540.65
20350-15-6	Brefeldin A	463.15	
20354-26-1	Methazole	396.65	
20357-20-4	5-Bromo-2-nitrobenzaldehyde	341.65	
20357-25-9	DMNB	406.15	
20357-37-3	1-(4-Chlorobenzoyl)-5-methoxy-2-methyl-1H-indole-3-acetyl chloride	400.15	
20358-00-3	5-Chloro-2-benzothiazolamine	470.15	
20358-01-4	7-Chloro-2-benzothiazolamine	450.65	
2036-13-7	9H-Purine-6-carbonitrile	450.65	
2036-41-1	5-Methylpyrimidine	303.65	426.15
20362-31-6	Arctiin	385.15	
20367-32-2	N-(4-Propoxyphenyl)acetamide	392.15	
20367-33-3	N-(2-Nitro-4-propoxyphenyl)acetamide	362.65	
20367-34-4	2-Nitro-4-propoxybenzenamine	351.15	
2037-26-5	Toluene-d8		385.65
2037-31-2	3-Chlorothiophenol	574.65	479.15
2037-95-8	2H-1,3-Benzoxazine-2,4(3H)-dione	502.65	
20375-65-9	3-Chloro-6-phenylpyridazine	432.15	
2038-03-1	4-Morpholineethanamine	298.75	478.15
2038-44-0	Dichloroglyoxime	474.15	
2038-57-5	Benzenepropanamine		494.15
20382-71-2	4H-Dibenzo[de,g]quinoline-10,11-diol, 5,6,6a,7-tetrahydro-6-propyl-, hydrochloride (1:1), (6aR)-	537.15	
20382-77-8	Morphinan-3,6-diol, 7,8-didehydro-4,5-epoxy-17-(2-propynyl)-, (5α,6α)-	456.65	
20383-28-2	N,N-Bis(1-methylethyl)benzamide	664.65	
20388-87-8	Benzeneethanamine, β-methyl-, hydrochloride (1:1)	467.15	
2039-06-7	3,5-Diphenyl-1H-1,2,4-triazole	463.65	
2039-54-5	Benzeneethanamine, 3-methoxy-, hydrochloride (1:1)	405.15	
2039-66-9	2-(2-Aminoethyl)phenol	387.15	
2039-68-1	4,4′-Diphenylstilbene	574.15	
2039-76-1	1-(3-Phenanthrenyl)ethanone	360.65	
2039-77-2	9-Acetylphenanthrene	396.15	
2039-80-7	4-Ethenyl-N,N-dimethylbenzenamine	289.95	363.65
2039-82-9	4-Bromostyrene	280.85	485.15
2039-83-0	1,2-Dichloro-4-ethenylbenzene	439.15	
2039-85-2	3-Chlorostyrene		461.85
2039-86-3	3-Bromostyrene		365.15
2039-87-4	2-Chlorostyrene	210.05	461.85
2039-88-5	2-Bromostyrene	220.65	482.35
2039-89-6	2,5-Dimethylstyrene	237.35	
2039-90-9	2,6-Dimethylstyrene	322.15	
20393-06-0	Bis[4-(dimethylamino)phenyl]methyl 4-methylbenzenesulfinate	466.15	
20398-06-5	Ethanol, thallium(1+) salt (1:1)	270.15	
204-02-4	Perimidine	495.15	
2040-00-8	Diethyliodoaluminum	216.15	430.65
2040-01-9	1-(2,3,4,5,6-Pentamethylphenyl)ethanone	514.85	
2040-04-2	1-(2,6-Dimethoxyphenyl)ethanone	346.65	408.65
2040-05-3	1-(2,6-Dichlorophenyl)ethanone	315.65	
2040-07-5	1-(2,4,5-Trimethylphenyl)ethanone	283.65	519.65
2040-10-0	4′-tert-Butyl-2′,6′-dimethylacetophenone	319.15	
2040-90-6	2-Chloro-6-fluorophenol	338.15	
2040-95-1	Butylcyclopentane	165.15	429.75
2040-96-2	Propylcyclopentane	155.85	404.15
204005-46-9	Semaxinib	500.15	
20405-30-5	Ethanol, 2,2,2-trichloro-, 1,1′,1′′-phosphate	344.65	
20408-97-3	Thioglucose	408.65	
2041-14-7	(2-Aminoethyl)phosphonic acid	554.65	
20410-87-1	Anabasamine	338.65	
20411-03-4	Fumariline	411.15	
20413-40-5	2-(Dodecylsulfinyl)ethanol	344.15	
20416-08-4	Methyl 5-(phenylmethyl)-3-furancarboxylate	325.65	
20416-09-5	5-(Phenylmethyl)-3-furanmethanol	310.65	
2042-14-0	4-Methyl-3-nitrophenol	352.15	
2042-37-7	2-Bromobenzonitrile	328.65	525.15
20423-99-8	Deprodone	545.4	
20424-00-4	Deprodone propionate	501.15	
20424-31-1	Hexadecyl (9Z,12Z)-9,12-octadecadienoate	285.15	
204254-84-2	Ethyl (3aR,7R,7aR)-3a,6,7,7a-tetrahydro-2,2-dimethyl-7-[(methylsulfonyl)oxy]-1,3-benzodioxole-5-carboxylate	374.65	
204255-06-1	Ethyl (3R,4R,5S)-4-acetamido-5-azido-3-(1-ethylpropoxy)-1-cyclohexene-1-carboxylate	395.15	
204255-11-8	Oseltamivir phosphate	458.15	
20427-22-9	9-Methyl-9H-purine	436.65	
20427-56-9	Ruthenium tetroxide	298.15	
2043-06-3	2,5-Bis(4-biphenylyl)-1,3,4-oxadiazole	503.65	
2043-24-5	1-Methyl-5-thioxo-2-pyrrolidinone	326.15	
2043-38-1	Butizide	494.65	
2043-43-8	Lactamide	315.95	
2043-52-9	1,1,1,2,2,3,3,4,4,5,5,6,6,7,7-Pentadecafluoro-9-iodononane	316.15	
2043-53-0	1,1,1,2,2,3,3,4,4,5,5,6,6,7,7,8,8-Heptadecafluoro-10-iododecane	323.15	
2043-57-4	1,1,1,2,2,3,3,4,4,5,5,6,6-Tridecafluoro-8-iodooctane		453.15
2043-61-0	Cyclohexanecarboxaldehyde	378.65	432.45
20432-02-4	(2E)-1-(4-Nitrophenyl)-3-phenyl-2-propen-1-one	513.15	
20432-35-3	trans-4-(Dimethylamino)cinnamaldehyde	413.65	
20432-64-8	Iprindole hydrochloride	419.65	
204326-43-2	8-Bromo-1H,4H-[1,2,4]oxadiazolo[3,4-c][1,4]benzoxazin-1-one	436.65	
20439-47-8	(-)-trans-1,2-Diaminocyclohexane	317.15	
2044-27-1	1-Methyl-2(1H)-pyridinethione	362.65	
2044-64-6	Dimethylacetoacetamide	393.15	
2044-72-6	N-(2,5-Dichlorophenyl)-3-oxobutanamide	368.15	
2044-88-4	N-Methyl-2,4-dinitroaniline	448.65	
20440-93-1	4-Nitro-N,N-bis(4-nitrophenyl)benzenamine	622.65	
20440-95-3	4-Methyl-N-(4-methylphenyl)-N-phenylbenzenamine	382.15	562.45
20442-06-2	Butanoic acid, 2-butoxyethyl ester	299.15	
20442-79-9	3-Iodobiphenyl	299.65	
20443-98-5	2,6-Dichlorobenzyl bromide	318.65	
2045-00-3	o-Arsanilic acid	426.65	
2045-19-4	N,N-Bis(2-bromoethyl)benzenamine	325.65	
2045-25-2	4-(4-Morpholinyl)-1,3,5-triazin-2-amine	493.65	
2045-44-5	Carbamic acid, [4-[bis(2-chloroethyl)amino]phenyl]-, 1-methylethyl ester	360.65	
2045-52-5	1,2-Ethanediamine, N1,N1-dimethyl-N2-phenyl-N2-(phenylmethyl)-, hydrochloride (1:1)	485.15	
2045-70-7	3,5-Dinitro-2-thiophenamine	453	
2045-79-6	2-Methoxyphenethylamine		509.65
20451-28-9	1,2-Diphenyl-3-(1-piperidinyl)-1-propanone	363.15	
204519-27-7	N-1H-Inden-3-ylacetamide	406.15	
20452-51-1	1,3-Diethyl 2-[(2,5-dimethoxyphenyl)methyl]propanedioate	429.65	
20455-68-9	Benzenemethanamine, N-(phenylmethyl)-, hydrochloride (1:1)	528.15	
2046-18-6	Benzenebutanenitrile		371.15
20460-30-4	(3β,5β,16β)-16-(Formyloxy)-3-[(O-β-D-glucopyranosyl-(1→4)-O-3-O-acetyl-2,6-dideoxy-β-D-ribo-hexopyranosyl-(1→4)-O-2,6-dideoxy-β-D-ribo-hexopyranosyl-(1→4)-2,6-dideoxy-β-D-ribo-hexopyranosyl)oxy]-14-hydroxycard-20(22)-enolide	485.15	
20461-54-5	Iodide	386.35	
20464-36-2	3,3′-[(1-Methylethylidene)bis(4,1-phenyleneoxy)]bis[1-propanol]	321.65	
20465-98-9	10-[(6-Aminohexyl)amino]-10-oxodecanoic acid	460.65	
20466-33-5	Lithium palmitate	467.65	
20469-63-0	1-Iodo-2,4-dimethoxybenzene	313.15	
20469-71-0	Hydrazinecarbodithioic acid, compd. with hydrazine (1:1)	397.15	
2047-14-5	Phosphorodithioic acid, S-(2-amino-2-oxoethyl) O,O-diethyl ester	330.15	
20475-12-1	Triethanolamine lactate	218.25	
20485-01-2	(5S,5aS,7aR,13S,13aS,15aR)-5,13-Bis(acetyloxy)-5,5a,13,13a-tetrahydro-8H,16H-7a,15a-epidithio-7H,15H-bisoxepino[3′,4′:4,5]pyrrolo[1,2-a:1′,2′-d]pyrazine-7,15-dione	481.15	
20485-39-6	Ethyl 4-methyloxazole-5-carboxylate	311.15	
20485-41-0	4-Methyl-5-thiazolecarboxylic acid	553.15	
20485-53-4	1-Chloro-3-diazo-2-propanone	276.15	
20485-57-8	8-Methylfluoranthene	366.65	
20487-40-5	tert-Butyl propionate		391.4
2049-57-2	Phosphine, (1-methylethenyl)-		302.15
2049-67-4	1,5-Diethyl 2-pentenedioate		510.15
2049-73-2	1,3-Diethoxybenzene	285.55	508.15
2049-80-1	Diethyl allylmalonate		495.65
2049-86-7	1,4-Diethyl 2,3-diacetylbutanedioate	363.9	
2049-94-7	Isopentylbenzene		468.15
2049-95-8	tert-Amylbenzene		465.55
20491-92-3	2,4,6-Trimethoxyphenol	335.15	
20492-13-1	3-Aminoperylene	498.15	
20495-14-1	Diphenanthro[3,4-c:4′,3′-g]phenanthrene	632.65	
20498-67-3	4-Methoxy-α-phenylbenzeneethanol	335.15	
205-12-9	7H-Benzo[c]fluorene	397.65	
205-25-4	7H-Benzo[c]carbazole	407.15	721.15
205-43-6	Benzo[b]naphtho[1,2-d]thiophene	375.4	
205-82-3	Benzo[j]fluoranthene	439.15	753.15
205-97-0	Dibenzo[b,k]fluoranthene	509.15	
205-99-2	Benz[e]acephenanthrylene	441.15	754.15
2050-01-3	Isoamyl isobutyrate		441.65
2050-04-6	(Pentyloxy)benzene		473.15
2050-07-9	4-Methyl-1-phenyl-1-pentanone	271.15	528.65
2050-08-0	Amyl salicylate		543.15
2050-09-1	Isoamyl valerate		461.65
2050-14-8	2,2′-Dihydroxyazobenzene	446.15	
2050-18-2	2-Hydroxy-4-phenyl-3-butenoic acid	410.15	
2050-20-6	Diethyl pimelate	249.15	527.15
2050-23-9	Diethyl suberate	279.05	555.75
2050-24-0	3,5-Diethyltoluene	199.05	478.15
2050-43-3	N-(2,4-Dimethylphenyl)acetamide	402.45	443.15
2050-44-4	N-(2,5-Dimethylphenyl)acetamide	414.65	
2050-45-5	N-(3,5-Dimethylphenyl)acetamide	415.15	
2050-46-6	1,2-Diethoxybenzene	317.15	492.15
2050-47-7	BDE 15	333.65	612.15
2050-48-8	1,1′-Sulfonylbis[4-bromobenzene]	444.15	
2050-49-9	2,4-Dibromo-1-naphthalenol	378.15	
2050-60-4	Dibutyl oxalate	242.65	514.15
2050-66-0	Bis(4-chloro-2-nitrophenyl) disulfide	485.15	
2050-67-1	3,3′-Dichlorobiphenyl	302.15	593.15
2050-68-2	4,4′-Dichlorobiphenyl	422.45	590.15
2050-69-3	1,2-Dichloronaphthalene	309.15	569.65
2050-72-8	1,6-Dichloronaphthalene	322.15	
2050-73-9	1,7-Dichloronaphthalene	336.65	558.65
2050-74-0	1,8-Dichloronaphthalene	362.15	
2050-75-1	2,3-Dichloronaphthalene	392.15	
2050-76-2	2,4-Dichloro-1-naphthol	380.65	453.15
2050-77-3	1-Iododecane	256.85	405.15
2050-85-3	N,N′-1,2-Phenylenebis[acetamide]	461.6	
2050-92-2	Dipentylamine	265.3	475.65
2050-94-4	Dipentyl carbonate		512.15
2050-95-5	1-Butanol, 3-methyl-, carbonate (2:1)		507.15
2050-99-9	2,8-Dimethyl-5-nonanone	668.15	497.15
20501-52-4	2-Butenoic acid, 2-methyl-, (3aR,4R,6R,6aR,7R,9aS,9bS)-7-(acetyloxy)-6-(chloromethyl)-2,3,3a,4,5,6,6a,7,9a,9b-decahydro-6,9a-dihydroxy-9-methyl-3-methylene-2-oxoazuleno[4,5-b]furan-4-yl ester, (2Z)-	435.65	
20501-56-8	Talatisamine	412.15	
2051-00-5	1,2-Bis(3-methylbutyl) ethanedioate	264.15	540.65
2051-04-9	Bis(3-methylbutyl) disulfide		520.15
2051-07-2	1,5-Bis(4-methoxyphenyl)-1,4-pentadien-3-one	404.15	
2051-10-7	Chrysenequinone	508.15	
2051-24-3	2,2′,3,3′,4,4′, 5,5′,6,6′-Decachlorobiphenyl	578.95	
2051-28-7	Decahydroquinoline	318.65	481.65
2051-30-1	2,6-Dimethyloctane		433.55
2051-31-2	4-Decanol	262.15	483.65
2051-32-3	3-Ethyl-3-octanol		472.15
2051-33-4	(±)-Tetrahydrolavandulol		484.15
2051-49-2	Hexanoic anhydride	232.15	
2051-59-4	6-Chlorocoumarin	434.65	
2051-60-7	2-Chlorobiphenyl	307.15	547.15
2051-61-8	3-Chlorobiphenyl	289.15	557.65
2051-62-9	4-Chlorobiphenyl	351.95	566.05
2051-76-5	Acrylic anhydride	253.15	
2051-78-7	Allyl butyrate	193.15	415.15
2051-85-6	2,4-Dihydroxyazobenzene	443.15	
2051-90-3	Dichlorodiphenylmethane	463.15	
2051-95-8	3-Benzoylpropionic acid	391.15	
2051-96-9	Benzyl lactate	314.65	
2051-97-0	N-Benzylpyrrole	288.15	520.15
2051-98-1	5-Bromoacenaphthene	325.15	608.15
20511-12-0	2-Amino-5-iodopyridine	402.15	
20511-15-3	4-Chloro-3-pyridinamine	355.15	
20513-79-5	2-Heptyl-4,5-dihydro-1H-imidazole-1-ethanamine	423.65	
20513-80-8	4,5-Dihydro-2-pentadecyl-1H-imidazole-1-ethanamine	319.15	