CAS	name	Tm	Tb
10173-54-3	2-(5,6-Dimethyl-1H-benzimidazol-2-yl)benzenamine	409.15	
10176-66-6	Nevadensin	472.65	
1017605-94-5	N,N-Dimethyl-4-thiomorpholinecarboxamide	334.65	
10177-11-4	5-Phenyl-3-pyridinecarbonitrile	348.65	
10177-22-7	Ethyl 2-(chloromethyl)-4-pyridinecarboxylate		348.15
10177-23-8	Ethyl 6-(chloromethyl)-3-pyridinecarboxylate	315.65	337.15
10177-31-8	4-Methoxy-3-pyridinecarboxylic acid	451.65	
10177-32-9	Methyl 4-methoxy-3-pyridinecarboxylate	356.65	
10177-33-0	3-Pyridinecarboxylic acid, 4-ethoxy-, hydrochloride (1:1)	451.15	
101773-69-7	6-(3-Bromopropyl)-2(1H)-pyridinone	372.15	
1017802-87-7	Ethyl 3-(acetylamino)-5-bromo-1H-pyrazole-4-carboxylate	472.15	
1017802-89-9	Ethyl 3-(acetylamino)-5-bromo-1-methyl-1H-pyrazole-4-carboxylate	423.15	
1017802-90-2	Ethyl 3-amino-5-bromo-1-methyl-1H-pyrazole-4-carboxylate	341.15	
10179-85-8	3-Methyl-3H-1,2,3-triazolo[4,5-d]pyrimidine	361.15	
1017968-67-0	1,1-Dimethylethyl 3-[(1Z)-2-bromo-3-ethoxy-3-oxo-1-propen-1-yl]-2-phenyl-1H-indole-1-carboxylate	389.65	
10182-81-7	Butanoic acid, 2-methyl-, 10-(acetyloxy)-9,10-dihydro-8,8-dimethyl-2-oxo-2H,8H-benzo[1,2-b:3,4-b′]dipyran-9-yl ester	359.15	
10182-90-8	2-Formyl-1-methylpyridinium	456.65	
10183-74-1	Withasomnine	389.65	
101830-83-5	1-Ethyl-6,8-difluoro-1,4-dihydro-4-oxo-3-quinolinecarboxylic acid	484.15	
10184-96-0	1,3-Diethyl 2-(1H-indol-3-ylmethylene)propanedioate	372.65	
10184-97-1	Ethyl β-cyano-1H-indole-3-propanoate	383.65	
1018450-37-7	4-Chloro-3-fluoro-2-iodobenzenamine	353.9	
10185-70-3	Benzenamine, 3-(5-methyl-1,2,4-oxadiazol-3-yl)-, hydrochloride (1:1)	508.15	
10185-80-5	3-(5-Butyl-1,2,4-oxadiazol-3-yl)phenol		416.15
101860-82-6	4-(1-Bromoethyl)benzonitrile	322.65	
101860-83-7	1-(4-Bromo-3-nitrophenyl)-1-propanone	349.15	
101860-97-3	2-Amino-3-pyridineacetic acid	493.4	
101870-29-5	Phenol, 2-amino-5-methoxy-4-methyl-	425.65	
101870-78-4	6-(1-Methylethyl)-3-pyridinol	429.15	
101871-81-2	N-Phenyl-N′-2-propyn-1-ylurea	407.65	
1018785-17-5	5-Nitro-2-phenyl-6-quinolinemethanol	428.15	
10189-46-5	Pyrido[2,3-b][1,5]benzoxazepin-5(6H)-one	533.15	
1018989-95-1	Cyclohexanol, 1-(3-methoxyphenyl)-2-[[methyl(phenylmethyl)amino]methyl]-, hydrochloride (1:1), (1R,2R)-rel-	446.65	
1019-13-2	2-Phenyl-2H-indazol-3-amine	416.65	
1019-72-3	4-Chloro-5-[(phenylmethyl)amino]-3(2H)-pyridazinone	517.15	
10190-93-9	Testosterone (carboxymethyl)oxime	453.15	
101909-43-7	Methyl 4-bromo-1H-indole-3-carboxylate	398.65	
101909-47-1	4-Iodo-N,N-dimethyl-1H-indole-3-methanamine	410.65	
10191-01-2	(2′R,3aR,4R,6aR,7R,9aS,9bS)-3,3a,4,5,6a,7,9a,9b-Octahydro-7,9a-dihydroxy-9-methyl-3-methylene-2-oxospiro[azuleno[4,5-b]furan-6(2H),2′-oxiran]-4-yl (2Z)-2-methyl-2-butenoate	472.65	
10191-24-9	3-Hydroxyhexanoic acid	286.15	
10191-25-0	3-Oxopentanoic acid	338.65	
1019111-17-1	5-(1-Methylethyl)-1,3,4-oxadiazole-2-propanoic acid	349.15	
101925-24-0	4-(1-Methylethyl)-3-pyridinol	436.15	
101927-55-3	4-(1,1-Dimethylethyl)-N-(phenylmethyl)benzamide	416.65	
101973-77-7	α-[(Acetylthio)methyl]-4-methyl-γ-oxobenzenebutanoic acid	370.15	
10199-66-3	Phenyl-1H-pyrazol-1-ylmethanone	319.15	
10199-90-3	4-Azido-7-nitro-2,1,3-benzoxadiazole	357.65	
101990-69-6	2,6-Dichloro-4-pyridinemethanol	406.15	
101990-82-3	1,3-Oxathiolane-5-methanaminium, 2,2-dicyclohexyl-N,N,N-trimethyl-, iodide, (5R)-	521.65	
101993-02-6	4,5-Dihydro-5-(methoxymethyl)-2-oxazolamine	360.15	
102-10-3	Phosphorous acid, diphenyl ester	298.15	
102-12-5	N-(2-Hydroxyethyl)-N′-phenylthiourea	414.15	
102-61-4	3,5-Dihydroxystilbene	428.9	
102-66-9	N-[[(4-Nitrophenyl)amino]carbonyl]-β-alanine	461.15	
10200-27-8	4-Methylheptanedioic acid	325.15	
1020085-48-6	1-Deoxy-1-[[1,2,3,6-tetrahydro-2,6-dioxo-5-[(1-oxopropyl)amino]-4-pyrimidinyl]amino]-D-ribitol	399.65	
10202-46-7	2,4-Dichloro-6-(4-chlorophenyl)-1,3,5-triazine	421.65	
10202-94-5	3-Methoxy-2,6-dinitrobenzaldehyde	430.15	
10202-98-9	7-Methoxy-4-nitro-2,1-benzisoxazole	481.65	
1020251-53-9	Xanthoanthrafil	398.65	
102029-58-3	α-D-Glucofuranose, 1,2-O-(1-methylethylidene)-, 3-acetate 6-benzoate 5-methanesulfonate	386.15	
102036-28-2	Protosappanin A	527.65	
10205-53-5	3,3,4,4-Tetramethoxy-1,1,2,2-cyclobutanetetracarbonitrile	452.15	
10205-57-9	4-(2-Benzothiazolyl)-N,N-diethylbenzenamine	398.15	
10205-58-0	6-Methyl-2-phenylbenzothiazole	398.15	
10206-02-7	2-(2-Pyridinyl)-1H-naphth[2,3-d]imidazole	492.65	
102065-87-2	N-[1-(Diphenylmethyl)-3-azetidinyl]acetamide	428.15	
102065-89-4	3-Azetidinamine, hydrochloride (1:2)	435.65	
102065-90-7	3-Azetidinamine, 1-(diphenylmethyl)-, hydrochloride (1:2)	382.15	
1020665-78-4	3-[(1R)-1-(3-Methoxyphenyl)-2-nitroethyl]-2,4-pentanedione	370.15	
10207-79-1	Isoabienol	341.4	
102072-82-2	6,7-Dichloro-5,8-quinoxalinedione	466.15	
102072-85-5	6,7-Dichloro-5,8-phthalazinedione	497.15	
102073-96-1	6-Amino-4-oxohexanoic acid	402.15	
102074-61-3	2-Pyridinemethanol, 4-methyl-, 1-oxide	360.15	
102074-66-8	5-Methyl-1H-pyrrole-3-acetic acid	483.15	
102089-74-7	1,1-Dimethylethyl N-[(1R)-2-hydroxy-1-phenylethyl]carbamate	410.9	
102089-75-8	1,1-Dimethylethyl N-[(1R)-2-[(methylsulfonyl)oxy]-1-phenylethyl]carbamate	386.15	
10212-20-1	2′-Deoxy-2′-fluorocytidine	438.15	
102123-74-0	N-Boc phenylalanyl chloride	376.15	
102147-76-2	5′-O-[(1,1-Dimethylethyl)dimethylsilyl]-2′,3′-O-(1-methylethylidene)uridine	407.65	
102151-46-2	5-Chloro-2-(4-methoxyphenyl)-4-methyl-1H-imidazole	459.15	
102153-43-5	4-(Chloromethyl)benzenesulfonamide	440.65	
102153-44-6	2-Bromo-3-iodonaphthalene	368.15	
102153-63-9	6-Chloro-2-naphthalenesulfonyl chloride	381.15	
102154-23-4	1-Iodo-2-nitronaphthalene	384.15	
102169-99-3	2-Bromo-4-methyl-5-nitrobenzenamine	392.65	
102170-52-5	2-Bromo-5-chloro-4-methylbenzenamine	363.15	
10218-17-4	N,N′-Dimethyl-N,N′-bis(trimethylsilyl)urea	295.65	
10219-04-2	N-(3-Fluorophenyl)-N-methylcarbamothioic chloride	316.15	
1021928-71-1	Ethyl 4-methyl-2-[(2E)-2-(2-pyridinylmethylene)hydrazinyl]-5-thiazolecarboxylate	503.15	
1022-14-6	6,7-Dihydrodibenzo[a,d]cycloocten-12(5H)-one	412.15	
1022-31-7	N-Formylkynurenine	442.65	
10221-57-5	Propylene glycol diethyl ether		397.65
10224-32-5	Camphor tosylhydrazone	436.65	
10224-69-8	N-Methyl-2-(methylsulfonyl)benzenamine	364.65	
102249-49-0	6-Bromo-3-phenyl-2-pyridinamine	434.15	
102252-89-1	3-Amino-1-(4-methoxyphenyl)-2-buten-1-one	380.15	
10226-55-8	3,7-Dihydro-1,3-dimethyl-7-(4-oxopentyl)-1H-purine-2,6-dione	360.15	
10226-65-0	3,7-Dihydro-1,3-dimethyl-7-(3-oxobutyl)-1H-purine-2,6-dione	413.15	
1022915-39-4	Propanedioic acid, 2-methyl-, 1-ethyl ester, 3-hydrazide	359.65	
1023-86-5	1-(3-Methylphenyl)-1,3,8-triazaspiro[4.5]decan-4-one	463.45	
1023-95-6	N,N-Bis(trimethylsilyl)benzenesulfonamide	334.65	
10230-76-9	4-[(2,2-Dichloroethyl)sulfonyl]-1-methoxy-2-nitrobenzene	379.15	
102308-44-1	N-Ethyl-2-piperidineacetamide	360.65	
102308-53-2	2-Methyl-1H-indol-6-amine	357.65	
102308-97-4	1-Methyl-1H-indol-5-amine	373.9	
10231-47-7	3-(4-Ethoxy-3-methoxyphenyl)-2-propen-1-ol	368.65	
102327-09-3	(3S)-3-[(2S)-1-Methyl-2-pyrrolidinyl]piperidine	279.15	
1023294-36-1	3-Acetyl-6,7-dichloro-4(1H)-quinolinone	387.65	
10233-81-5	(2R,3R)-2-(Dimethylamino)-N-[(3S,4S,7S,11R)-11-hydroxy-3-(1-methylethyl)-5,8-dioxo-7-(phenylmethyl)-2-oxa-6,9-diazabicyclo[10.2.2]hexadeca-12,14,15-trien-4-yl]-3-methylpentanamide	519.15	
102333-75-5	α-Amino-4-chlorobenzeneacetamide	401.15	
1023357-64-3	Borate(1-), (3-ethoxy-3-oxopropyl)trifluoro-, potassium (1:1), (T-4)-	451.15	
102336-07-2	2-Methoxy-4-pyridinepropanoic acid	388.4	
10234-74-9	4-Methyl-3-pyrazolidinone	327.65	
10237-77-1	3-Hydroxyvaleric acid	316.65	
1024-31-3	Benzenesulfonic acid, 1-(phenylmethyl)hydrazide	388.15	
1024-60-8	Hexafluoro-1,4-naphthoquinone	547.15	
10242-01-0	5-Methoxy-1H-indole-3-carboxylic acid	446.65	
10242-02-1	5-Methyl-1H-indole-3-carboxylic acid	475.15	
10242-03-2	6-Nitro-1H-indole-3-carboxylic acid	539.15	
10242-05-4	N-(3-Chlorophenyl)glycine	370.15	
10242-08-7	5-Methoxybenzofuran-2-carboxylic acid	485.65	
10242-10-1	5-Chloro-2-benzofurancarboxylic acid	489.15	
10242-16-7	1-(1-Methylethoxy)-2,4-dinitrobenzene	319.15	
102423-75-6	2,6-Diamino-4-(4-chlorophenyl)-4H-thiopyran-3,5-dicarbonitrile	461.65	
102423-76-7	1,2-Dihydro-6-mercapto-2-oxo-4-phenyl-3,5-pyridinedicarbonitrile	468.15	
10243-16-0	2-Methylbenzo[b]thiophene-3-ethanol	343.15	
10245-81-5	2,4-Dibromo-6-(3,4,5-tribromo-1H-pyrrol-2-yl)phenol	423.15	
10245-82-6	2-(3,5-Dibromo-2-methoxyphenyl)-1H-pyrrole	378.15	
1024590-32-6	1,1-Dimethylethyl 3-(4-pyridinyl)-1-pyrrolidinecarboxylate	345.15	
1025-89-4	5-Methyl-1,3-diphenyl-1H-1,2,4-triazole	368.15	
10250-63-2	Ethyl 1-methyl-3-phenyl-1H-pyrazole-5-carboxylate	300.15	
1025023-08-8	Glycine, N2-[(1,1-dimethylethoxy)carbonyl]-L-arginyl-, hydrochloride (1:1)	382.15	
102507-25-5	1,1-Dimethylethyl N-[(3S)-2,2-dimethyl-4-oxo-1-(phenylmethoxy)-3-azetidinyl]carbamate	394.65	
10252-29-6	4,4′-Azodibenzoyl chloride	436.15	
10252-64-9	4-[(Ethylamino)sulfonyl]benzoic acid	530.15	
10252-65-0	4-[(Propylamino)sulfonyl]benzoic acid	484.65	
10252-84-3	4-Cyano-N-(1,1-dimethylethyl)benzenesulfonamide	406.15	
102522-48-5	Phenylmethyl N-[2-hydroxy-1,1-bis(hydroxymethyl)ethyl]carbamate	375.15	
102539-72-0	Hexahydro-7-(1-methylethyl)-2H-azepin-2-one	364.15	
102569-27-7	2-Amino-3-ethyl-4-hydroxybenzonitrile	380.15	
1025719-26-9	2-[3,5-Bis(1-methylethyl)phenyl]-4,4,5,5-tetramethyl-1,3,2-dioxaborolane	394.15	
1025796-07-9	7-Methyl-2,4(1H,3H)-quinolinedione	633.15	
1026-93-3	1,4-Benzenedicarboxylic acid, 1,4-bis(2-chloroethyl) ester	371.65	
1026016-83-0	(3R,11bR)-1,3,4,6,7,11b-Hexahydro-9,10-dimethoxy-3-(2-methylpropyl)-2H-benzo[a]quinolizin-2-one	382.15	
1026016-84-1	(3S,11bS)-1,3,4,6,7,11b-Hexahydro-9,10-dimethoxy-3-(2-methylpropyl)-2H-benzo[a]quinolizin-2-one	382.15	
10262-84-7	1,6-Dihydroxypyrene	497.15	
102626-54-0	2,3,5,6-Tetramethyl-α-(trifluoromethyl)benzenemethanol	332.15	
102630-83-1	2-Amino-N-[2-(1-methylethyl)phenyl]benzamide	423.15	
102630-87-5	3-Amino-N-(2,4-dimethylphenyl)benzamide	452.15	
102630-91-1	3-Amino-N-[2-(1-methylethyl)phenyl]benzamide	401.65	
102631-05-0	N-(2,5-Dimethylphenyl)-3-nitrobenzamide	461.65	
102631-07-2	N-(3,4-Dimethylphenyl)-3-nitrobenzamide	455.15	
10264-14-9	N-(Phenylmethyl)butanamide	315.65	
102652-89-1	1-(3,5-Dimethoxy-2-nitrophenyl)ethanone	395.65	
102658-03-7	2-Dodecyl-1,2-benzisothiazol-3(2H)-one	312.65	
102669-54-5	N2,N2-Dimethyl-2,4-quinolinediamine	440.15	
102677-72-5	Benzenemethanamine, 3-amino-4-methoxy-, hydrochloride (1:2)	520.15	
102677-74-7	Benzenemethanamine, 3-amino-4-chloro-, hydrochloride (1:2)	633.15	
102677-75-8	Benzenemethanamine, 3-amino-5-chloro-, hydrochloride (1:2)	464.15	
10268-76-5	N,N′-1,2-Phenylenebis[propanamide]	403.15	
102692-36-4	(2E)-1-[1,1′-Biphenyl]-4-yl-3-(4-methylphenyl)-2-propen-1-one	389.65	
102692-38-6	(2E)-1-[1,1′-Biphenyl]-4-yl-3-(4-methoxyphenyl)-2-propen-1-one	395.65	
10271-85-9	5-Isothiazolecarboxylic acid	471.15	
10271-93-9	4-Isothiazoleacetic acid	391.15	
102714-95-4	(trans,trans)-4-Methoxy-4′-pentyl-1,1′-bicyclohexyl	285.15	
10272-10-3	2-Amino-4,6-dimethyl-1,3-benzenedicarbonitrile	485.15	
1027343-52-7	Bicyclo[3.1.1]heptane-3-carboxylic acid, 2-amino-6,6-dimethyl-, hydrochloride (1:1), (1R,2R,3R,5R)-	514.65	
1027343-58-3	Bicyclo[3.1.1]heptane-3-carboxylic acid, 2-amino-6,6-dimethyl-, ethyl ester, hydrochloride (1:1), (1R,2R,3S,5R)-	411.65	
102739-99-1	6-MeO-BDE 47	385.65	
10274-30-3	Phosphinous acid, diphenyl-, 1,4-butanediyl ester	530.15	
10275-07-7	Benzoquinoneacetic acid	403.15	
102774-90-3	(4S)-5-Amino-4-hydroxypentanoic acid	402.15	
102778-37-0	Cyclopentanamine, 2-methyl-, hydrochloride (1:1), (1S,2R)-	485.65	
1027819-76-6	4-Phenyl-1H-pyrazole-3,5-dimethanol	470.15	
102791-47-9	Nanterinone	597.15	
102791-93-5	2-Methyl-1-(3-methyl-4-nitrophenyl)-1H-imidazole	408.15	
10282-31-2	4-Morpholinobenzonitrile	338.65	
10282-59-4	N-(3,4-Dichlorophenyl)-4-nitrobenzamide	493.15	
10282-60-7	N-(2,4-Dichlorophenyl)-4-nitrobenzamide	447.15	
1028206-58-7	(SP-4-4)-[2-[2-(Amino-κN)ethyl]phenyl-κC]chloro[dicyclohexyl(2′,6′-dimethoxy[1,1′-biphenyl]-2-yl)phosphine-κP]palladium	449.15	
10283-68-8	1H-Indole-3-ethanol, 2-(5-ethyl-1-azabicyclo[2.2.2]oct-2-yl)-, [1S-(1α,2α,4α,5β)]-	434.65	
1028331-33-0	3,3′-(1,2-Ethynediyl)bis[2-bromopyridine]	469.15	
102849-49-0	UCB-L 057	398.15	
102855-24-3	4-Chloro-1-[(4-methylphenyl)sulfonyl]-1H-indole	391.65	
10286-77-8	N-(2,3-Dichlorophenyl)benzamide	395.4	
10286-78-9	N-(3-Chloro-4-methylphenyl)benzamide	395.15	
10286-92-7	3-Chloro-N-(3-chlorophenyl)benzamide	385.65	
102871-93-2	2-Ethoxy-4-methyl-1-nitrobenzene	327.65	
1028752-25-1	1,1-Dimethylethyl 6-cyano-2-(trimethylstannyl)-1H-pyrrolo[2,3-b]pyridine-1-carboxylate	396.65	
102877-50-9	1,2,3,4-Tetrahydro-5-isoquinolinol	546.15	
102877-83-8	1,7-Naphthalenedicarboxaldehyde	383.15	
102878-84-2	5-Quinolinesulfonyl chloride	366.15	
102878-93-3	3-(2-Bromo-4-methoxyphenyl)-2-propenoic acid	523.15	
102879-22-1	2-Iodo-1,5-dimethoxy-3-methylbenzene	358.15	348.15
102879-34-5	5-Isoquinolinol, 1,2,3,4-tetrahydro-, hydrochloride (1:1)	531.8	
102879-43-6	2-Hydroxy-N-(2-methylphenyl)acetamide	337.15	
102879-44-7	Benzenepropanoic acid, 3-amino-, hydrochloride (1:1)	464.15	
1029-97-6	2,6-Diphenylthiopyran-4-thione	402.15	
102908-59-8	Binospirone	450.15	
102934-61-2	1,23-Dimethyl 12-oxotricosanedioate	345.15	
102943-16-8	3-Piperidinecarboxylic acid, 5-methyl-2-oxo-, ethyl ester	373.65	
10295-51-9	α-Hydroxy-N-(4-methylphenyl)benzeneacetamide	442.65	
1029684-36-3	2-Chloro-1-(tetrahydro-2H-pyran-2-yl)-5-(4,4,5,5-tetramethyl-1,3,2-dioxaborolan-2-yl)-1H-imidazole	408.15	
1029684-37-4	1-(Tetrahydro-2H-pyran-2-yl)-5-(4,4,5,5-tetramethyl-1,3,2-dioxaborolan-2-yl)-1H-imidazole	405.15	
10297-03-7	2-(Ethylamino)ethanesulfonic acid	456.15	
102978-41-6	4′-Ethyl-7′,8′-dihydro-4′-hydroxyspiro[1,3-dioxolane-2,6′(3′H)-[1H]pyrano[3,4-f]indolizine]-3′,10′(4′H)-dione	453.15	
10298-98-3	3-[(Diethylamino)methyl]-2,6-dimethyl-4-quinolinol	593.15	
102989-24-2	(5S)-3-[(2R,13R)-2,13-Dihydroxy-13-[(2R,2′R,5R,5′R)-octahydro-5′-[(1R)-1-hydroxyundecyl][2,2′-bifuran]-5-yl]tridecyl]-5-methyl-2(5H)-furanone	319.65	
10299-70-4	2,3,3-Trimethyl-3H-pyrrolo[2,3-b]pyridine	350.9	
1030-49-5	Heptyl 3,4,5-trihydroxybenzoate	369.15	
10300-22-8	3′-O-Methyladenosine	450.65	
10300-23-9	Inosine, 3′-O-methyl-, 2′,5′-diacetate	540.65	
10300-27-3	3′-O-Methylguanosine	554.65	
103026-12-6	7-(2-Furanylmethyl)-5,6-dimethyl-7H-pyrrolo[2,3-d]pyrimidin-4-amine	471.15	
103028-33-7	7-Bromo-6-methoxyquinoline	383.65	
103028-61-1	5-Nitro-4-isoquinolinol	519.15	
103028-85-9	1-(3-Amino-4-methylphenyl)-1-propanone	358.9	
103029-76-1	6-Nitro-3-quinolinol	573.15	
103030-10-0	7-Methoxycarbonylisatin	553.15	
103030-28-0	6-Bromo-2-methyl-4-quinolinol	611.15	
1030377-33-3	Suvorexant	426.25	
103038-68-2	2-Chloro-N-(3-chloro-4-methylphenyl)propanamide	383.15	
103055-07-8	Lufenuron	439.15	
103058-88-4	5-Chloro-2-methoxy-3-pyridinecarboxaldehyde	367.65	
10309-19-0	2,2-Dimethyl-3-methylenebicyclo[2.2.1]heptane-1-carboxylic acid	349.4	
103095-53-0	4-Methyl-1-phenyl-1H-pyrazol-5-amine	358.15	
103095-54-1	4-[2-(1H-Imidazol-1-yl)ethyl]pyridine	362.15	
103095-64-3	2-Hydroxy-N-(4-methoxyphenyl)propanamide	378.65	
1031-15-8	Methyltriphenylphosphonium chloride	490.9	
10310-07-3	4-Hydroxy-6-(2-oxopropyl)-2H-pyran-2-one	391.15	
10314-90-6	Deacetylgedunin	534.15	
10315-07-8	1-(Phenylmethyl)-4-piperidinecarboxylic acid	442.9	
10318-17-9	N-[(1R,2R)-2-(Acetyloxy)-1-[(acetyloxy)methyl]-2-(4-nitrophenyl)ethyl]-2,2-dichloroacetamide	412.15	
1031928-45-6	7-Methyl-3-phenyl-2(1H)-quinolinone	506.65	
1031928-90-1	4-Methyl-N-(2-oxocyclobutyl)benzenesulfonamide	447.65	
103203-84-5	3,4-Dihydro-2H-1-benzopyran-6-carboxylic acid	422.15	
103204-69-9	4-(Acetylamino)-2-methylbenzoic acid	495.15	
103204-71-3	Ethanone, 1-(2-methoxy-5-methyl-3-nitrophenyl)-	314.65	
1032231-26-7	1-Bromo-4-iodo-2-(methylthio)benzene	320.65	
1032231-28-9	5-Bromo-2-cyanobenzoic acid	443.15	
1032231-30-3	B-(5-Bromo-2-cyanophenyl)boronic acid	555.65	
10324-61-5	2,6-Bis(1,1-dimethylethyl)-4-(2,2-dimethylpropyl)phenol	325.15	
103245-32-5	3-Methyl-4-isoxazoleethanol		467.15
103286-54-0	3-Chloro-1H-pyrazol-4-amine	422.65	
103300-74-9	Taltirelin	346.65	
103317-32-4	2-Bromobenzeneethanethioamide	419.65	
103321-52-4	9H-Fluoren-9-ylmethyl (2S)-2-(chlorocarbonyl)-1-pyrrolidinecarboxylate	364.15	
103321-53-5	9H-Fluoren-9-ylmethyl N-[(1S)-1-(chlorocarbonyl)-2-methylpropyl]carbamate	383.65	
103321-57-9	9H-Fluoren-9-ylmethyl N-[(1S)-2-chloro-2-oxo-1-(phenylmethyl)ethyl]carbamate	390.15	
103321-58-0	9H-Fluoren-9-ylmethyl N-[(1R)-2-chloro-2-oxo-1-(phenylmethyl)ethyl]carbamate	389.15	
103323-26-8	3-Ethyl-4-methoxybenzaldehyde		403.15
103323-95-1	2-(Ethoxymethyl)benzoic acid	357.65	
10334-13-1	(-)-Isoborneol	491.15	482.65
103361-45-1	6-Amino-4-ethyl-7-fluoro-2H-1,4-benzoxazin-3(4H)-one	381.9	
103361-68-8	4-Methyl-6-nitro-2H-1,4-benzoxazin-3(4H)-one	463.15	
103362-08-9	7-Fluoro-2-methyl-2H-1,4-benzoxazin-3(4H)-one	424.45	
103365-69-1	(4S)-Hexahydro-1-methyl-2,6-dioxo-4-pyrimidinecarboxylic acid	488.15	
103368-22-5	6-Methoxy-2-oxo-1(2H)-quinolineacetic acid	519.65	
1033693-20-7	N8,N8-Dimethyl-5,8-quinolinediamine	461.15	
1033700-94-5	4-Fluoro-1-methyl-α-phenyl-1H-pyrazole-5-methanol	307.8	
103377-41-9	Monatepil	467.4	
10338-58-6	Methyl 4-(1-piperidinyl)benzoate	366.55	
10338-88-2	β-D-Glucopyranoside, 4-hydroxyphenyl, 6-acetate	486.15	
10338-99-5	Dibromochloromethylsilane		380.65
103385-38-2	6,7′-Biquinoline	405.65	
103394-66-7	N-[1-(3-Aminophenyl)ethyl]acetamide	351.15	
103394-78-1	1,2,4-Thiadiazole, 3-(ethylthio)-	271.15	
1034-11-3	1,4-Dibenzylpiperazine	365.15	
10340-01-9	cis-1,3-Cyclohexanedicarbonitrile	313.45	
103404-89-3	Tryptophan, 5-hydroxy-, ethyl ester, monohydrochloride	507.65	
10341-75-0	Ethanone, 1-phenyl-, oxime, (1E)-	330.15	
10341-85-2	2-[[(2-Propen-1-ylamino)carbonyl]amino]benzoic acid	439.15	
10342-47-9	L-Phenylalanine, L-valyl-, methyl ester, hydrochloride (1:1)	505.65	
10343-51-8	3-(Acetyloxy)-17-hydroxypregn-5-en-20-one	470.15	
103430-24-6	QTX	543.15	
103438-91-1	3-Benzyloxy-4-fluorobenzaldehyde	339.65	
10344-27-1	1H-Pyrrole-2-carboxaldehyde, 2-formylhydrazone	443.15	
103440-64-8	4-(3-Butyn-1-yl)pyridine	313.65	
103440-65-9	2-Methyl-6-benzothiazolemethanol	372.15	
103440-97-7	3-Ethoxy-5-nitrobenzoic acid	414.15	
103441-59-4	Benzoic acid, 2-ethyl-4-iodo-	403.65	
103441-67-4	1-Nitro-2-(2-propen-1-yl)benzene	348.65	
1034439-57-0	Piperidine, 4-[(2,3-dihydro-5,6-dimethoxy-1H-inden-2-yl)methyl]-1-(phenylmethyl)-, hydrochloride (1:1)	485.15	
103460-90-8	1-Cyclopropyl-7-(3,5-dimethyl-1-piperazinyl)-6,8-difluoro-1,4-dihydro-4-oxo-3-quinolinecarboxylic acid	509.275	
103466-44-0	(9β,11β)-21-(Acetyloxy)-9,11-epoxypregna-1,4,16-triene-3,20-dione	437.4	
10347-14-5	1,2,4-Benzenetricarbonitrile	400.65	
10347-87-2	3-(1-Methylethyl)hexanedioic acid	358.15	
10349-08-3	3-(4-Chlorophenyl)-1,2,5-oxadiazole	376.65	
10349-11-8	(4-Methyl-1,2,5-oxadiazol-3-yl)phenylmethanone	315.15	
10349-15-2	N-(4-Phenyl-1,2,5-oxadiazol-3-yl)acetamide	451.15	
10350-70-6	4-(5-Methyl-1,2,4-oxadiazol-3-yl)pyridine	365.65	
103514-54-1	Ethyl 4-chloro-6-nitro-3-quinolinecarboxylate	418.15	
10352-30-4	2,6-Dichloro-4-phenylquinoline	387.65	
10352-31-5	[5-Chloro-2-[(6-chloro-4-phenyl-2-quinolinyl)amino]phenyl]phenylmethanone	464.15	
10354-30-0	3,5-Diethyl 1,4-dihydro-4-(4-hydroxyphenyl)-2,6-dimethyl-3,5-pyridinedicarboxylate	503.65	
10354-31-1	1,4-Dihydro-4-(4-hydroxy-3-methoxyphenyl)-2,6-dimethyl-3,5-pyridinedicarboxylic acid diethyl ester	429.65	
10354-47-9	N-Cyclohexyl-2-furancarboxamide	381.9	
10354-58-2	N-Butyl-4-pyridinecarboxamide	337.15	
103541-16-8	(1S,3R,4S,7R)-5-Methyl-3,7-diphenyl-2-oxa-5-azabicyclo[2.2.1]heptan-6-one	472.15	
103566-22-9	2-Methoxy-4-nitro-1-naphthalenol	396.65	
103577-41-9	2-[[[5-Methyl-4-(2,2,2-trifluoroethoxy)-2-pyridinyl]methyl]thio]-1H-benzimidazole	442.15	
103577-66-8	3-Methyl-4-(2,2,2-trifluoroethoxy)-2-pyridinemethanol	366.65	
103586-12-5	4-Amino-1-(3-pentyn-1-yl)-N-2-propen-1-yl-1H-pyrazolo[3,4-b]pyridine-5-carboxamide	454.15	
10359-18-9	4-Nitro-N-phenylbenzenemethanamine	341.15	