CAS	name	Tm	Tb
17210-51-4	3-Pyridinecarboxylic acid, 1,2,5,6-tetrahydro-, methyl ester, hydrobromide (1:1)	417.65	
17216-10-3	1,3-Bis(1-naphthalenyloxy)-2-propanol	350.65	
1722-21-0	4-Chloro-N,N-diethyl-6-methoxy-1,3,5-triazin-2-amine	366.45	
1722-63-0	2-[(2E)-1-Methyl-3-phenyl-2-propen-1-ylidene]hydrazinecarboxamide	461.65	
17220-34-7	[3,3′-Bi-1,2,5-oxadiazole]-4,4′-diamine	573.15	
172215-92-8	2,3,4-Trichloro-6-nitrobenzenamine	411.65	
17226-41-4	(2R,4aS,6aR,7S,7aS,8aR,9S,9aS,9bS)-2-(3-Furanyl)dodecahydro-7-hydroxy-6a,9b-dimethyl-9,7-(epoxymethano)-4H-oxireno[6,7]naphtho[2,1-c]pyran-4,11-dione	531.15	
17228-69-2	2-Chloro-4-methoxypyridine		502.65
17228-74-9	2,6-Dichloro-4-pyridinol	469.15	
17228-76-1	2,3,5,6-Tetrachloro-4-ethoxypyridine	327.15	
17236-25-8	3-Thiopheneacetic acid, 2,3-dihydro-, 1,1-dioxide	396.15	
17238-05-0	(±)-Dihydrodaidzein	523.15	
1724-08-9	Bicyclo[2.2.1]heptane-2,3-dicarboxylic acid	423.15	
1724-38-5	2,2,6,6-Tetrachloro-1-hydroxycyclohexanecarbonitrile	378.15	
17241-40-6	2-Hydroxy-3-methylanthraquinone	572.15	
17241-42-8	2-Methoxy-3-methyl-9,10-anthracenedione	457.15	
172430-46-5	4-(2,3-Dihydroxypropyl)-N-(2,6-dimethylphenyl)-1-piperazineacetamide	402.65	
172462-89-4	8-Methoxy-2-phenyl-4(3H)-quinazolinone	534.15	
17247-62-0	4-Amino-2-(cyclobutylmethyl)-5-pyrimidinecarbonitrile	453.15	
172490-05-0	1-Propanol, 2-amino-3,3,3-trifluoro-, hydrochloride (1:1), (2R)-	475.15	
17254-80-7	Methyldesphenylchloridazon	477.15	
17257-15-7	4aα,7α,7aβ-Nepetalactone	301.4	
172586-14-0	(5S)-5-Methyl-3-[(2R,8R,11R)-2,8,11-trihydroxy-11-[(2R,5S)-tetrahydro-5-[(1S)-1-hydroxypentadecyl]-2-furanyl]undecyl]-2(5H)-furanone	353.15	
17259-79-9	Pyridazine, 3-hydrazinyl-6-(4-methyl-1-piperazinyl)-	439.15	
172595-67-4	1H-Indole-3-carboxylic acid, 5-chloro-, methyl ester	470.15	
172595-68-5	Methyl 5-methoxy-1H-indole-3-carboxylate	414.65	
17260-65-0	N,N,4-Trichlorobenzenesulfonamide	356.15	
172648-02-1	3H-Imidazo[4,5-b]pyridine-2-propanol	425.15	
172648-10-1	5-Chloro-3-methyl-3H-imidazo[4,5-b]pyridine-2-methanol	480.15	
172648-20-3	6-Bromo-3-methyl-3H-imidazo[4,5-b]pyridine-2-methanol	416.15	
172648-58-7	5,7-Dimethyl-3H-imidazo[4,5-b]pyridine-2-methanol	518.15	
172648-59-8	3,5,7-Trimethyl-3H-imidazo[4,5-b]pyridine-2-methanol	451.65	
17265-60-0	3-Methyl-5-isothiazolemethanol	309.15	
17269-95-3	4-Butyl-2-methylphenol	394.65	509.15
172695-23-7	1,1-Dimethylethyl N-[(1R)-1-(cyanomethyl)-2-methylpropyl]carbamate	354.15	
172695-25-9	1,1-Dimethylethyl N-[(1S)-1-(cyanomethyl)-2-phenylethyl]carbamate	392.15	
1727-09-9	N-[(4-Bromophenyl)methyl]glycine	490.15	
1727-15-7	Ethanethioic acid, S-(triphenylmethyl) ester	420.35	
1727-65-7	Spiro[2.2]penta-1,4-diene	419.15	
17272-66-1	Acetylacetonate anion	461.65	
172732-68-2	Varespladib	505.15	
172733-08-3	Methyl 2-[[3-(2-amino-2-oxoacetyl)-2-ethyl-1-(phenylmethyl)-1H-indol-4-yl]oxy]acetate	452.65	
17275-83-1	Ethyl 3,5-dimethoxy-2-nitrobenzoate	404.15	
17276-15-2	Rubrofusarin B	486.15	
17278-28-3	Isocucurbitacin B	492.15	
17278-74-9	14-Hydroxytetradecanoic acid	359.65	
1728-95-6	2-(4-Methoxyphenyl)-4,5-diphenyl-1H-imidazole	475.15	
1728-96-7	2,4,5-Tris(4-methoxyphenyl)-1H-imidazole	355.15	
17281-09-3	2-Ethyl-5-phenyl-3(2H)-isoxazolethione	365.15	
17282-42-7	Pyridinium, 1,1′-(2-oxo-1,3-propanediyl)bis-, diiodide	503.65	
17283-13-5	3,4-Dimethylbenzenepropanamide	393.15	
17285-16-4	3,6-Dihydro-3,6-dioxo-1(2H)-pyridazinepropanenitrile	494.15	
17286-63-4	2-(4-Chlorophenyl)quinoxaline	394.15	
17288-15-2	Alanine, 2-methyl-, ethyl ester, hydrochloride (1:1)	429.65	
17289-19-9	Methyl 1-methyl-1H-imidazole-4-carboxylate	376.65	
17289-30-4	1H-Imidazole, 4-(chloromethyl)-1-methyl-, hydrochloride (1:1)	426.65	
17290-70-9	Isosinensetin	471.65	
172900-71-9	(αR)-4-Methoxy-3-(3-methoxypropoxy)-α-(1-methylethyl)benzenepropanoic acid	316.9	
17295-29-3	4,7-Dibromo-3-hydroxy-2-naphthalenecarboxamide	524.15	
17297-56-2	Kaempferol 3-O-robinobioside	495.15	
1730-24-1	1,4-Pentadiene, 1-bromo-1,2-difluoro-		371.15
17301-65-4	8-Methylhexadecanoic acid	294.4	
17305-15-6	Spirostan-3,6,25-triol, (3β,5β,6α,25R)-	539.15	
17306-48-8	α-Methyl-α-2-thienyl-2-thiopheneacetic acid	401.15	
173089-80-0	6-Quinolinyl 1,1,1-trifluoromethanesulfonate	306.65	
173089-82-2	6-Isoquinolinecarboxylic acid, methyl ester	368.15	
173101-54-7	(2aR,4S,4aS,6R,9S,11S,12S,12aR,12bS)-6,12b-Bis(acetyloxy)-2a,3,4,4a,5,6,9,10,11,12,12a,12b-dodecahydro-4,11-dihydroxy-4a,8,13,13-tetramethyl-12-[[(2E)-2-methyl-1-oxo-2-buten-1-yl]oxy]-5-oxo-7,11-methano-1H-cyclodeca[3,4]benz[1,2-b]oxet-9-yl (αR,βS)-β-(benzoylamino)-α-hydroxybenzenepropanoate	505.15	
17313-52-9	Centaureidin	476.15	
173153-99-6	(2S,4E,7S)-2,7-Bis(1-methylethyl)-1,8-bis[(4S)-2-oxo-4-(phenylmethyl)-3-oxazolidinyl]-4-octene-1,8-dione	383.95	
173154-00-2	(4S)-3-[(2S,4R)-4-Bromo-2-(1-methylethyl)-1-oxo-4-[(2S,4S)-tetrahydro-4-(1-methylethyl)-5-oxo-2-furanyl]butyl]-4-(phenylmethyl)-2-oxazolidinone	364.35	
173154-01-3	(4S)-3-[(2S,4S)-4-Azido-2-(1-methylethyl)-1-oxo-4-[(2S,4S)-tetrahydro-4-(1-methylethyl)-5-oxo-2-furanyl]butyl]-4-(phenylmethyl)-2-oxazolidinone	378.35	
17318-09-1	1-Fluoro-4-iodonaphthalene	299.15	
1732-25-8	4-Bromo-1,2,3,6,7,8-hexahydropyrene	402.15	
1732-26-9	4-Bromopyrene	422.35	
1732-37-2	(8S,8aS,15aR,15bR,16S)-16-(Acetyloxy)-8a,15a-dihydro-4,11-dihydroxy-8a-methoxy-6,9-dimethyl-7H-8,15b-methano-1H,3H,12H-benzo[de]cyclohepta[1,2-g:3,4,5-d'e′]bis[2]benzopyran-3,7,12,15(8H)-tetrone	503.15	
1732-46-3	5-Phenyl-3-isothiazolecarboxylic acid	418.65	
1732-67-8	Phosphinic acid, bis(2,4,6-trimethylphenyl)-	440.65	
17320-10-4	4β-Hydroxycholesterol	448.65	
17321-22-1	3-Butoxy-6-chloropyridazine	321.15	
17321-25-4	3-Chloro-6-(hexyloxy)pyridazine	326.65	
17321-27-6	3-Chloro-6-(octyloxy)pyridazine	309.9	
17321-94-7	4-(1,1-Dimethylethyl)-2-pyrimidinamine	377.4	
17322-84-8	Pretazettine	479.65	
17324-05-9	3-Ethyl-2-naphthalenol	351.15	
17329-24-7	6-Amino-2-methyl-4(3H)-quinazolinone	587.65	
17329-31-6	6-Amino-4(3H)-quinazolinone	576.15	
17329-32-7	2,3-Dihydro-2-(2-hydroxyethyl)-1,3-dioxo-1H-isoindole-5-carboxylic acid	470.15	
17332-11-5	2-Bromo-4-methoxyphenol	350.65	
17332-34-2	2-[(Propylamino)carbonyl]benzoic acid	384.15	
17332-61-5	Isoprednidene	508.15	
173336-76-0	4-Bromo-1-methoxy-2-(3-methoxypropoxy)benzene	312.15	
173338-07-3	1,1-Dimethylethyl N-[(1S,2S,4S)-4-[[(3-amino-2,2-dimethyl-3-oxopropyl)amino]carbonyl]-2-hydroxy-1-[(2S)-2-[[4-methoxy-3-(3-methoxypropoxy)phenyl]methyl]-3-methylbutyl]-5-methylhexyl]carbamate	414.65	
17334-09-7	Methyl 1H-imidazole-2-carboxylate	468.9	
17335-88-5	N-(Carboxymethyl)-N-[(phenylmethoxy)carbonyl]glycine	356.15	
17336-10-6	Benzoic acid, 2-(acetyloxy)-4-nitro-	429.4	
17336-11-7	2-(Acetyloxy)-4-methoxybenzoic acid	419.15	
17336-14-0	2-(Acetyloxy)-5-nitrobenzoic acid	437.15	
1734-78-7	Ethyl 2-methyl-3-phenyl-2-propenoate		498.15
17343-07-6	Glycylglycyl-L-tyrosine	492.15	
17343-55-4	Phenylmethyl N-[(1S)-1-cyano-2-methylpropyl]carbamate	326.15	
17345-72-1	4-Bromo-1,2,3-benzenetriol	392.15	
17347-32-9	6-Bromobenzo[b]thiophene	329.15	
17349-94-9	2-(Diphenylmethoxy)ethylamine	346.65	
1735-87-1	3,3,3-Trifluoro-2-methyl-2-(trifluoromethyl)propanoyl fluoride		322.65
1735-88-2	2-Cyano-N-(4-fluorophenyl)acetamide	432.15	
17350-84-4	α-Methyl-D-phenylalanine	551.15	
17351-24-5	3-Methoxy-1-butene		327.15
17354-62-0	2,2′-[1,2-Ethanediylbis(oxy)]bis[benzoic acid]	424.65	
17355-24-7	N-Acetyl-O-methyl-L-tyrosine methyl ester	379.65	
17357-34-5	5-Bromo-α-oxo-2-furanacetaldehyde	355.15	
17357-75-4	5-[[(4-Methoxyphenyl)methyl]thio]-1H-1,2,4-triazole	357.15	
17357-89-0	3-Ethyl-2-quinoxalinecarbonitrile	366.65	
17359-53-4	2-Hydroxy-7-methoxy-2H-1,4-benzoxazin-3(4H)-one	467.15	
1736-47-6	1,1,2,2,3,3,4,5,6,7-Decafluoro-2,3-dihydro-1H-indene		389.65
1736-51-2	4,6-Dichloro-N-(2,4-difluorophenyl)-1,3,5-triazin-2-amine	446.65	
1736-85-2	2-Fluoro-1,3-dimethyl-5-nitrobenzene	315.65	
1736-92-1	N-Ethyl-4,5-difluoro-2-nitrobenzenamine	343.65	
17360-11-1	3,5-Dinitro-L-tyrosine	504.15	
173606-54-7	1,1-Dimethylethyl N-(10-hydroxydecyl)carbamate	342.15	
17365-01-4	Etiroxate	429.65	
173676-60-3	(αS)-5-Chloro-α-(2-cyclopropylethynyl)-2-[[(4-methoxyphenyl)methyl]amino]-α-(trifluoromethyl)benzenemethanol	428.15	
173725-22-9	β-D-Glucopyranoside, octyl 2-(acetylamino)-2-deoxy-, 3,4,6-triacetate	398.15	
173731-97-0	4-Amino-2-hydroxycyclohexanecarboxylic acid	553.65	
17379-38-3	3-(Trimethylsilyl)-4-pyridinecarbonitrile		496.15
1738-79-0	Serine, phenylmethyl ester, 4-methylbenzenesulfonate (salt)	380.15	
17380-84-6	1-Chloro-4-(1-cyclohexen-1-yl)benzene	337.9	
173841-02-6	3-Chloro-1-methyl-1H-pyrazole-5-carboxylic acid	445.65	
173841-06-0	Methyl 3-chloro-1-methyl-1H-pyrazole-5-carboxylate	297.15	
173841-81-1	5-Thiazolecarboxylic acid, 2,4-dimethyl-, methyl ester	281.95	
17386-10-6	4-(1-Piperidinylmethyl)-2-thiazolamine	436.15	
17388-19-1	Berberrubine	530.15	
1739-61-3	5-Methoxy-6-methyl-4-pyrimidinamine	395.4	
17392-68-6	N-(2-Methoxyphenyl)maleimide	392.65	
173933-40-9	Hispolon	424.1	
17396-38-2	4H-Thiopyran-4-one, 1,1-dioxide	329.15	
173960-45-7	5-(4-Bromophenyl)-2,2′-bipyridine	489.15	
17398-11-7	4H,8H-Benzo[1,2-b:3,4-b′]dipyran-4-one, 5-hydroxy-2-(hydroxymethyl)-8,8-dimethyl-	449.15	
1740-22-3	α-[3-(Di-2-pyridinylmethylene)-2,4-cyclopentadien-1-yl]-α-2-pyridinyl-2-pyridinemethanol	420.15	
1740-23-4	2-(2,4-Dimethoxyphenyl)-4,5-diphenylimidazole	437.65	
1740-89-2	6-Bromo-2-ethyl-1H-benzimidazole	428.65	
17404-92-1	7-Chlorocinnoline	365.65	
174063-97-9	6,8-Nonadecadiynoic acid	331.15	
17407-55-5	(S)-2-Hydroxy-3-methylbutanoic acid	344.65	
17407-56-6	(-)-2-Hydroxy-3-methylbutyric acid	341.85	
1741-93-1	Monostearyl fumarate	352.65	
17412-38-3	6-Methylimidazo[1,2-b]pyridazine	391.65	
17417-10-6	2-(Dimethylamino)-5-nitrobenzonitrile	383.15	
17419-81-7	4-Hydroxycyclohexanecarboxylic acid	393.15	
1742-15-0	N-(2-Acetylphenyl)-4-nitrobenzamide	456.65	
17420-03-0	1-Phenyl-2-sulfinylhydrazine	378.15	
17422-72-9	4-Chloro-6-methyl-2H-pyran-2-one	358.65	504.15
1743-60-8	Estradiol, 17-acetate	483.15	
1743-87-9	5,6,7,8-Tetrafluoro-2,3-dihydro-1,4-benzodioxin	351.65	
17430-71-6	Penta-O-acetyl-D-gluconic acid	383.65	
17431-95-7	2-(3-Chlorophenoxy)butanoic acid	347.4	
17431-97-9	2-Methyl-2-(4-nitrophenoxy)propanoic acid	396.15	
174311-02-5	1,1-Dimethylethyl (2R)-2-phenyl-1-pyrrolidinecarboxylate	335.45	
17437-21-7	15-Aminopentadecanoic acid	433.65	
17438-16-3	2-Hydroxy-2-(phenylamino)-1H-indene-1,3(2H)-dione	392.65	
1744-13-4	Methyl 3-amino-6-(trifluoromethyl)-2-pyrazinecarboxylate	469.15	
1744-23-6	1-(4-Bromophenoxy)-2-nitro-4-(trifluoromethyl)benzene	319.65	
174422-14-1	2-(4-Chlorophenyl)-1H-benzimidazole-6-carboxylic acid	439.65	
17449-78-4	3-[(Dimethylsilyl)oxy]-1,1,5,5-tetramethyltrisiloxane		428.15
1745-06-8	1,2,3,4-Tetrahydro-5,6,7-trimethoxyisoquinoline	344.65	
1745-19-3	N1-(4-Methyl-2-thiazolyl)-1,4-benzenediamine	413.65	
1745-36-4	Spinasterol 3-O-β-D-glucopyranoside	565.15	
174501-64-5	1-Butyl-3-methylimidazolium hexafluorophosphate	283.51	
17451-20-6	3-Butenoic acid, 2-oxo-4-phenyl-, ethyl ester	334.65	
17452-09-4	1,3-Dihydro-1-phenyl-2H-imidazole-2-thione	453.65	
174565-63-0	7-Nitro-2,4(1H,3H)-quinazolinedione	610.15	
174573-90-1	2,4-Dihydro-5-(3-methoxyphenyl)-4-phenyl-3H-1,2,4-triazole-3-thione	482.65	
17460-56-9	N-[(Phenylmethoxy)carbonyl]-D-phenylalanyl-L-proline	405.65	
17463-46-6	(1R,5S,12R)-12-Ethyl-2,3,4,5,6,7-hexahydro-2-methyl-6-methylene-1,5-methano-1H-azocino[4,3-b]indole	396.15	
17465-99-5	7-Chloro-3-(4-methylphenyl)-3H-1,2,3-triazolo[4,5-d]pyrimidine	399.65	
174671-46-6	Tavaborole	392.15	
174671-49-9	1,3-Dihydro-1-hydroxy-3-phenyl-2,1-benzoxaborole	416.15	
174671-93-3	7-Fluoro-1,3-dihydro-1-hydroxy-2,1-benzoxaborole	395.15	
174689-60-2	1,1′-Bis[(R)-hydroxyphenylmethyl]ferrocene	404.15	
1747-93-9	1,5-Bis(acetyloxy)-9,10-anthracenedione	519.15	
17475-68-2	Tetrakis(1,1,1-trifluoro-2,4-pentanedionato-κO2,κO4)hafnium	398.15	
174775-48-5	2-Benzofurancarboxylic acid, 5-amino-, ethyl ester	332.65	
17478-51-2	Thymine, 1-(2-amino-2-deoxy-β-D-glucopyranosyl)-, monohydrochloride	575.65	
1748-99-8	α,α-Diphenyl-2-pyridineethanol	415.15	
17488-25-4	1,4-Dichloro-2,5-dinitrobenzene	392.15	577.15
174886-05-6	Cyclobutanamine, 1-methyl-, hydrochloride (1:1)	515.65	
174899-66-2	1-Butyl-3-methylimidazolium trifluoromethanesulfonate	289.55	
174899-82-2	1-Ethyl-3-methylimidazolium bis(trifluoromethylsulfonyl)imide	256.15	816.75
174899-83-3	1-Butyl-3-methylimidazolium bis(trifluoromethylsulfonyl)imide	268.25	
174899-88-8	1H-Imidazolium, 1,3-diethyl-, salt with 1,1,1-trifluoro-N-[(trifluoromethyl)sulfonyl]methanesulfonamide (1:1)	285.55	
1749-05-9	4-[[(4-Chlorophenyl)methylene]amino]phenol	390.15	
174913-20-3	2-Bromo-1,3-dichloro-5-methoxybenzene	332.65	
174913-45-2	1,2-Dibromo-3-chloro-4-methoxybenzene	371.15	
174959-56-9	N-[4-(Aminomethyl)phenyl]guanidine	447.15	
17496-15-0	2,3-Dihydro-2,2-dimethyl-1H-inden-1-ol	329.65	
1750-79-4	4-(5-Amino-1,3,4-oxadiazol-2-yl)phenol	562.15	
17508-19-9	(+)-2-Chloro-1,8-dihydroxy-6-(2-hydroxypropyl)-3-methoxy-9,10-anthracenedione	521.4	
17510-99-5	2-keto-3-Deoxygluconate	384.65	
17512-70-8	2-Fluoro-N-hydroxybenzamide	414.15	
175135-01-0	3-Pyridinecarboxylic acid, 2-phenoxy-, hydrazide	475.15	
175135-44-1	3-Methyl-6-(1-methylhydrazinyl)pyridazine	347.15	
175135-49-6	N-[2-Bromo-4-(trifluoromethyl)phenyl]acetamide	419.15	
175135-62-3	2-(2,4-Difluorophenoxy)-3-nitropyridine	326.65	
175135-63-4	2-(2,4-Difluorophenoxy)-3-pyridinamine	361.15	
175135-68-9	2-[(5-Amino-1,3,4-thiadiazol-2-yl)thio]-5-nitrobenzonitrile	516.65	
175136-31-9	3,4′-Dimethyl[1,1′-biphenyl]-4-ol	409.15	
175136-32-0	α-[(4-Tricyclo[3.3.1.13,7]dec-1-ylphenoxy)methyl]-1-piperidineethanol hydrochloride (1:1)	517.15	
175136-49-9	4-(1-Oxododecyl)-2,6-piperazinedione	386.9	
175136-61-5	6-Chloro-8-(chloromethyl)-4H-1,3-benzodioxin	376.15	
175136-93-3	1-(2-Furanylmethyl)-5-oxo-3-pyrrolidinecarboxylic acid	428.65	
175137-09-4	6-(4-Chlorophenyl)-2,4-pyrimidinediamine	435.65	
175139-08-9	4,6-Dichloro-5-ethyl-2-methylpyrimidine	480.65	486.15
17515-74-1	5-Methyl-2-(trifluoromethyl)-3-furancarboxylic acid	380.15	
175153-03-4	4-(2-Oxo-1-piperidinyl)benzoic acid	400.15	
1752-02-9	Methyl 6-iodo-2,3,4-trimethoxybenzoate	368.65	
1752-99-4	N-(2,3-Dihydro-1,5-dimethyl-3-oxo-2-phenyl-1H-pyrazol-4-yl)-2-phenyl-4-quinolinecarboxamide	519.15	
17520-98-8	3,6-Dibromo-5-hydroxy-2-methoxy-1,4-naphthalenedione	484.15	
175201-57-7	2-[[2-(Phenylsulfonyl)ethyl]thio]acetic acid	357.15	
175202-65-0	3,4-Dihydro-3-oxo-2H-1,4-benzothiazine-2-acetic acid hydrazide	464.15	
175203-55-1	Ethyl 4-(2-propyn-1-yloxy)benzoate	316.15	
175203-89-1	3-(2-Thienyl)-5-(trifluoromethyl)isoxazole	386.65	
175204-88-3	4-Thiazolecarboxylic acid, 2-[4-(trifluoromethyl)phenyl]-, ethyl ester	371.15	
175205-45-5	1-[(2-Chlorophenyl)methyl]-5-oxo-3-pyrrolidinecarboxylic acid	431.65	
175205-81-9	2-Bromo-4-(trifluoromethyl)pyridine	252.65	434.65
17526-15-7	1,4,5-Trihydroxy-2-methoxy-7-methyl-9,10-anthracenedione	518.15	
175276-52-5	Ethyl 4-formyl-2,5-dimethyl-1-phenyl-1H-pyrrole-3-carboxylate	355.15	
175278-08-7	2,3,4-Trifluorobenzenesulfonyl chloride	396.15	
175278-42-9	2-[(4-Methylphenyl)thio]-5-nitrobenzaldehyde	429.15	
17528-87-9	Benzeneethanamine, β,4-dichloro-, hydrochloride (1:1)	473.15	
17529-16-7	1,2,3,4-Tetrahydro-6-methoxy-1-oxo-2-naphthaleneacetic acid	441.15	
17529-17-8	Methyl 1,2,3,4-tetrahydro-6-methoxy-1-oxo-2-naphthaleneacetate	383.15	
1753-20-4	5-Bromo-4-nitro-2,1,3-benzoselenadiazole	553.15	
1753-21-5	5-Ethoxy-2,1,3-benzothiadiazole	353.65	
1753-22-6	2,1,3-Benzothiadiazol-4-ol, 4-acetate	326.65	
1753-24-8	4-Ethoxy-2,1,3-benzothiadiazole	319.15	
1753-48-6	2-Amino-5-pyrimidinecarbonitrile	578.15	
1753-49-7	1,2-Dihydro-2-oxo-5-pyrimidinecarbonitrile	540.15	
1753-76-0	5-Methoxy-2,1,3-benzothiadiazole	352.65	
17532-20-6	α,α-Diphenyl-2-piperazinemethanol	446.15	
175357-18-3	Sepiwhite	383.65	
175417-96-6	(1S)-2-Oxocyclohexanepropanoic acid	408.15	
17542-06-2	2-Iodo-1-naphthalenecarboxylic acid	459.15	
1756-18-9	2,3-Dihydroxy-3-methylbutanoic acid	367.15	
1756-33-8	1-(1-Cyclohexen-1-yl)ethanone 2-(2,4-dinitrophenyl)hydrazone	475.15	
175617-24-0	7-(1,1-Dimethyl-2-propen-1-yl)-2,3,5,8-tetrahydroxy-1,4-bis(3-methyl-2-buten-1-yl)-9H-xanthen-9-one	382.15	
17562-44-6	4-(Acetylamino)-3-benzoylbenzoic acid	484.15	
17564-73-7	2,5-Dichloro-4-methylbenzonitrile	364.65	
175671-44-0	2-Piperidinecarboxylic acid, 4-hydroxy-, methyl ester, hydrochloride (1:1), (2R,4S)-	442.15	
175692-06-5	[1,1′-Biphenyl]-2-carboximidamide	422.15	
175696-73-8	3-(1-Pyrrolidinyl)benzonitrile	358.65	
1757-29-5	1H-Pyrrole-2,5-dicarboxylic acid, 2,5-dimethyl ester	405.15	
1757-30-8	2,5-Dimethyl 1-methyl-1H-pyrrole-2,5-dicarboxylate	353.65	
17573-94-3	4-Ethynyl-N,N-dimethylaniline	325.65	
17574-57-1	3-(1-Naphthalenyl)thiophene	420.15	
17575-27-8	4,7-Dimethoxy-2H-1-benzopyran-2-one	429.15	
17578-13-1	5-Methyl-1,3-dioxolane-2,4-dione	301.15	
175790-00-8	Propanoic acid, 2-hydroxy-3-nitro-, methyl ester	318.15	
1758-80-1	L-2,4-Diaminobutyric acid	490.15	
175865-59-5	Valganciclovir hydrochloride	416.15	
17587-29-0	3-Hydroxyheptanoic acid	313.65	
175871-08-6	N-(2,3-Dihydro-5-nitro-1H-inden-2-yl)-2,2,2-trifluoroacetamide	376.15	
17589-91-2	4-Methylbenzenesulfonic acid 2-(cyclobutylmethylene)hydrazide	344.15	
1759-35-9	(3S,3aS,5aS,6R,9aS,9bS)-Dodecahydro-3-hydroxy-3a,6-dimethyl-7-oxo-1H-benz[e]indene-6-propanoic acid	451.65	
1759-61-1	3,3,4,4,5,5-Hexafluoro-1,2-dimethoxycyclopentene		421.65
175968-61-3	3-Fluoro-4-(phenylmethoxy)benzaldehyde	367.65	
17598-82-2	L-Tagatose	407.65	
17598-94-6	1,2-Dilaurin	327.65	
1760-27-6	Oroselone	453.65	
176019-04-8	(2R,3R)-3-Hydroxy-2-piperidinecarboxylic acid	510.15	
176050-43-4	9,4a-Propeno-4aH-xanthene-1,4-dione, 9,9a-dihydro-7-hydroxy-12-methyl-9a-(3-methyl-2-butenyl)-, (4aα,9α,9aα)-	425.15	
17609-06-2	Dihydroconiferin	391.15	
1761-57-5	2-[[(2-Hydroxyphenyl)methylene]amino]-4-methylphenol	433.4	
1761-62-2	5-Iodosalicylaldehyde	403.15	
1761-63-3	4-Hydroxy[1,1′-biphenyl]-3-carboxaldehyde	374.65	
176178-88-4	1-Methyl-4-piperidinecarboxylic acid hydrazide	416.65	
17618-53-0	2,5-Dimethyl-4-(phenylmethyl)pyridine	331.65	
176180-03-3	1H-Perimidine-2,2(3H)-dimethanol	430.15	
1762-46-5	5,5′-Diethyl [2,2′-bipyridine]-5,5′-dicarboxylate	419.15	
1762-52-3	4-(4-Morpholinyl)-1-(phenylmethyl)-4-piperidinecarboxamide	423.65	
1762-85-2	4-Iodo-1,1′:4′,1′′-terphenyl	519.65	
17622-26-3	2-(β-D-Glucopyranosyloxy)-7-methoxy-2H-1,4-benzoxazin-3(4H)-one	504.65	
17623-63-1	8-Hydroxy-2,2-dimethylpyrano[3,2-c]xanthen-7(2H)-one	441.15	
17624-08-7	6-Chloro-3-pyridinesulfonic acid	515.65	
17626-28-7	Ethanamine, 2-(diphenylmethoxy)-N,N-dimethyl-, nitrate (1:1)	370.9	
17626-40-3	3,4-Diaminobenzonitrile	420.65	
17629-27-5	3-(4-Chlorophenyl)-5-methyl-1H-pyrazole	416.15	
17629-30-0	Raffinose, pentahydrate	408.15	
1763-11-7	N-(2,2,2-Tribromo-1-hydroxyethyl)urea	409.15	
17630-75-0	5-Chlorooxindole	466.65	
17635-23-3	5-Methoxy-2,3-dimethylquinoxaline	394.15	
17635-27-7	5-Chloro-2,3-dimethylquinoxaline		352.15
17637-37-5	Hexadecanoic acid, 2-hydroxy-3-[(1-oxotetradecyl)oxy]propyl ester	336.9	
176383-20-3	Ethyl 1,4,5,6-tetrahydro-2-methyl-4-(3-nitrophenyl)-6-oxo-3-pyridinecarboxylate	442.15	
17639-74-6	1-Methylethyl 2-(1-methylethoxy)acetate		395.65
1764-73-4	(11β,16α)-21-[(Bromoacetyl)oxy]-9-fluoro-11,17-dihydroxy-16-methylpregna-1,4-diene-3,20-dione	461.15	
17640-30-1	Methyl 2-propoxyacetate		434.9
17642-89-6	1-(Phenylmethyl)-2-piperidinethione	341.55	
1765-42-0	2-Amino-3,4,5,6-tetrafluorobenzoic acid	414.65	
17650-84-9	Kaempferol 3-O-rutinoside	495.65	
17653-94-0	3-Methoxy-α,α-dimethylbenzeneacetic acid	330.15	
17663-87-5	γ-Glutamylmethionine	502.65	
17664-98-1	L-Leucyl-D-alanine	530.15	
17665-60-0	N-Hydroxy-2-(phenylsulfonyl)ethanimidamide	439.65	
176655-58-6	1,3-Piperazinediacetic acid, 4-[[[4-(aminoiminomethyl)benzoyl]amino]acetyl]-2-oxo-, α3-methyl ester, (3S)-	551.15	
17666-64-7	(3β)-3-Hydroxypregna-5,17(20)-diene-21-nitrile	448.15	
17667-32-2	Methyl 2-bromo-4,5-dimethoxybenzoate	360.15	