CAS	name	Tm	Tb
109384-28-3	2-(3,4-Dimethoxyphenyl)furan	338.65	
1094-76-4	N6-(2,4-Dinitrophenyl)-L-lysine	455.15	
1094222-85-1	3,4-Dihydro-6,7-dimethoxy-2(1H)-isoquinolinesulfonamide	438.15	
109425-51-6	N-[(9H-Fluoren-9-ylmethoxy)carbonyl]-1-(triphenylmethyl)-L-histidine	418.15	
109425-55-0	N-α-Fluorenylmethoxycarbonyl-N-δ-tert-butoxycarbonyl-L-ornithine	366.65	
109428-30-0	1,5:2,3-Dianhydro-4,6-O-(phenylmethylene)-D-allitol	397.15	
1094390-37-0	(5S)-3-[(2E,4E,6R)-4,6-Dimethyl-1-oxo-2,4-octadien-1-yl]-1,5-dihydro-4-hydroxy-5-[(S)-hydroxy(4-hydroxyphenyl)methyl]-2H-pyrrol-2-one	398.15	
109448-27-3	1-[3-Hydroxy-5-(phenylmethoxy)-1H-indol-1-yl]ethanone	443.15	
109467-01-8	4-Ethyl-4-hydroxy-9-methyl-1H-pyrano[3′,4′:6,7]indolizino[1,2-b]quinoline-3,14(4H,12H)-dione	552.65	
109481-23-4	5-Oxo-L-prolyl-L-glutamine	452.15	
109482-33-9	Benzeneethanol, β-(methoxymethyl)-, carbamate	357.65	
109543-49-9	2-Methylthiazolo[4,5-c]quinoline	372.65	
109547-61-7	4-[(4-Methylphenyl)methyl]-1H-pyrazole-3,5-diamine	449.65	
109564-03-6	Ethyl 1,3,4,9-tetrahydro-2H-pyrido[3,4-b]indole-2-butanoate	395.9	
1096-39-5	Pregn-11-ene-3,20-dione, (5β)-	406.15	
1096-58-8	7-O-Methyltectorigenin	505.15	
109667-12-1	(2S,3S,4S)-Tetrahydro-4-methyl-5-oxo-2-pentyl-3-furancarboxylic acid	409.65	
109736-44-9	2-(Methyl-4-pyridinylamino)ethanol	360.65	
109771-09-7	2-Hydroxy-1-methoxy-6-methyl-4H-dibenzo[de,g]quinoline-4,5(6H)-dione	547.65	
1097732-14-3	Pyridine, 2-bromo-6-phenyl-, 1-oxide	391.15	
109784-48-7	1-Ethyl-1,2,3,4,4a,9,10,10a-octahydro-7-hydroxy-2-methyl-2-phenanthrenecarboxylic acid	463.15	
1098081-38-9	(6aS,7aR,8R,9R,11aR,11bS)-5-Chloro-6a,7a,8,9,11a,11b-hexahydro-7a-hydroxy-6a,8,9-trimethyl-3-[(1E,3S)-3-methyl-1-penten-1-yl]-6H,11H-pyrano[3′,4′:4,5]furo[2,3-h]-2-benzopyran-6,11-dione	369.15	
109880-40-2	Methyl 6-formyl-4-methoxy-2-pyridinecarboxylate	389.95	
109897-77-0	2-Acetyl-5-hydroxy-11-methylfuro[2,3-c]acridin-6(11H)-one	569.15	
109906-48-1	Quinine 1-oxide	468.65	
109922-46-5	Ergoline, 6-methyl-	484.15	
109971-63-3	Combretastatin A1	387.15	
109972-90-9	2-Hydroxy-N-octylbenzamide	318.15	
110-27-0	Isopropyl myristate	276.15	
11004-68-5	Myxoxanthophyll	442.65	
110073-83-1	2-Phenyl-1H-indole-6-carboxylic acid	522.15	
110076-50-1	5-[[(4-Methoxyphenyl)methyl]thio]-1,3,4-thiadiazol-2-amine	425.15	
110076-51-2	5-[[(3-Methoxyphenyl)methyl]thio]-1,3,4-thiadiazol-2-amine	421.65	
110079-42-0	N-(1,1-Dimethylethyl)-3-nitrobenzenemethanamine	439.15	
110137-65-0	N-[4-[(Phenylmethyl)amino]phenyl]acetamide	403.15	
110140-89-1	Ridogrel	343.45	
110144-25-7	6-[7-Bromo-8-(phenylmethoxy)-2-quinolinyl]-2-pyridinecarboxylic acid	488.65	
110187-11-6	1,5,8-Trihydroxy-3-methoxy-2-(3-methyl-2-buten-1-yl)-9H-xanthen-9-one	467.15	
110192-20-6	8-Hydroxy-1,2,3,4-tetrahydroisoquinoline hydrobromide	531.25	
110204-45-0	9-Hydroxy-6-phenyl-8H-1,3-dioxolo[4,5-g][1]benzopyran-8-one	487.15	
110216-88-1	4-Amino-3-(phenylmethyl)-2(1H)-quinolinone	455.15	
110221-53-9	Temocaprilat	519.15	
11023-94-2	Nothofagin	374.15	
110231-00-0	N-(2-Hydroxyethyl)-3-nitro-1H-pyrrolo[2,3-b]pyridine-1-acetamide	461.15	
110235-28-4	4-Methoxy-N-phenyl-2-pyrimidinamine	392.15	
1102373-49-8	N-Ethyl-α-oxo-3-benzofuranacetamide	342.15	
110238-91-0	2H-Pyran-4-carboxylic acid, tetrahydro-, methyl ester	351.15	
110254-64-3	4-Chloro-3-nitro-1-phenyl-2(1H)-quinolinone	354.15	
110254-65-4	7-Chloro-2,3-dihydro-6-nitro-1H,5H-benzo[ij]quinolizin-5-one	421.15	
110254-66-5	3,4-Dichloro-1-methyl-2(1H)-quinolinone	400.15	
11027-63-7	Agnuside	419.15	
110271-41-5	3,4-Dihydro-3-hydroxy-1H-naphtho[2,3-c]pyran-5,10-dione	426.15	
110284-77-0	2-[(4-Chloro-6-methoxy-2-pyrimidinyl)oxy]benzoic acid	423.65	
110284-79-2	2-[(4,6-Dimethoxy-2-pyrimidinyl)thio]benzoic acid	401.65	
1103-85-1	2-Hydroxy-3-methoxystrychnine	552.15	
110300-76-0	Taxamairin A	496.65	
11034-94-9	2-[(4-O-β-D-Glucopyranosyl-β-D-glucopyranosyl)oxy]-6-hydroxy-5-methoxy-9-phenyl-1H-phenalen-1-one	536.65	
110368-34-8	4-[(1E)-3-[3,4-Bis(1-methylethyl)phenyl]-3-oxo-1-propen-1-yl]benzoic acid	471.4	
110371-28-3	1-Methyl bicyclo[3.1.1]heptane-1,5-dicarboxylate	350.4	
110374-42-0	4-Methoxy-3,5-dimethyl-2-[(methylsulfinyl)methyl]pyridine	345.65	
1104-26-3	2,3,6,7-Tetrahydro-2,6-dioxo-7-(phenylmethyl)-1H-purin-1-yl benzenesulfonate	498.65	
110406-97-8	4-(3-Chloropropyl)-1,2-dimethoxybenzene	321.15	
110475-21-3	5-Ethyl-1,2-dihydro-3H-pyrazol-3-one	463.15	
110475-31-5	Piperazine, 1-(phenylmethyl)-, hydrochloride (1:1)	440.65	
110482-98-9	2,2-Difluoro-4-penten-1-yl 1,1,1-trifluoromethanesulfonate		324.15
110506-35-9	N-(4-Amino-2-methoxyphenyl)-2-furancarboxamide	386.15	
110506-37-1	N-(4-Amino-2-methoxyphenyl)-4-methoxybenzamide	409.15	
1105067-88-6	1H-Pyrrole-1-heptanoic acid, 2-(4-fluorophenyl)-β,δ-dihydroxy-5-(1-methylethyl)-3-phenyl-4-[(phenylamino)carbonyl]-, calcium salt (2:1), (βS,δS)-	443.15	
11053-21-7	Crispanone	350.65	
110543-98-1	Ethyl 5-(acetyloxy)-6-bromo-2-(bromomethyl)-1-methyl-1H-indole-3-carboxylate	442.65	
110544-05-3	Ethyl 6-bromo-5-hydroxy-1-methyl-2-(4-morpholinylmethyl)-1H-indole-3-carboxylate	432.65	
110545-69-2	3-Bromo-4-methoxythiophene	463.15	
11055-93-9	Theasaponin	497.65	
110568-65-5	2,3-Dihydro-5,6-dimethyl-1H-isoindol-1-one	512.15	
110568-66-6	2,3-Dihydro-4,7-dimethyl-1H-isoindol-1-one	436.15	
110578-28-4	Ethyl 5-(2-methoxyphenyl)-3-isoxazolecarboxylate	452.15	
110599-28-5	Acetic acid, bis[(butoxycarbonyl)amino]-	427.65	
110623-73-9	Epimedin B	436.15	
1106304-74-8	Ethyl 3-bromo-2-methoxybenzoate		543.15
110638-02-3	2-Propanone, 1-chloro-3-(1-naphthalenyloxy)-, oxime, (Z)-	435.65	
110642-42-7	trans-5-Hydroxyferulic acid	455.15	
110654-36-9	N-(Phenylmethyl)benzenemethanesulfonamide	418.65	
110677-77-5	1-Hydroxy-N-(2-methylphenyl)-2-naphthalenecarboxamide	362.65	
110683-10-8	N-(p-Amylcinnamoyl)anthranilic acid	449.15	
110704-48-8	5-Bromo-2-(chloromethyl)benzoxazole	337.15	
110766-85-3	8-Bromo-2,3-dihydro-1,5-benzothiazepin-4(5H)-one	485.65	
110768-20-2	2,3-Dihydro-2-(4-nitrophenyl)-1,3-dioxo-1H-isoindole-5-carboxylic acid	560.65	
110821-37-9	Ethyl 5-chloro-1-(4-nitrophenyl)-1H-pyrazole-4-carboxylate	404.65	
110821-40-4	Ethyl 5-bromo-1-(4-chlorophenyl)-1H-pyrazole-4-carboxylate	374.15	
110859-48-8	2-[[4-(Phenylmethyl)-2-morpholinyl]methyl]-1H-isoindole-1,3(2H)-dione	410.65	
110920-15-5	Benzoic acid, 3-methyl-, 2,5-dioxo-1-pyrrolidinyl ester	389.65	
110920-18-8	Benzoic acid, 2-fluoro-, 2,5-dioxo-1-pyrrolidinyl ester	379.65	
110920-19-9	Benzoic acid, 3-fluoro-, 2,5-dioxo-1-pyrrolidinyl ester	419.15	
1109230-25-2	5-Bromo-3,4-dihydro-1(2H)-isoquinolinone	454.4	
110951-48-9	2-[(2,3,4,9-Tetrahydro-6-methyl-1H-carbazol-1-ylidene)amino]ethanol	446.15	
111-03-5	Glycerol 1-monooleate	308.15	
111-38-6	Ethene, 1,1′-[methylenebis(oxy)]bis-		362.65
1110-56-1	Deacetylsalannin	487.65	
111011-63-3	Landel	442.65	
111013-76-4	Pentanethioamide, 2-amino-3-methyl-, hydrochloride (1:1)	440.15	
111035-65-5	(+)-Annonacin	343.15	
111042-90-1	Methyl 3-aminothieno[3,2-b]pyridine-2-carboxylate	395.15	
111042-91-2	Methyl 3-aminothieno[2,3-c]pyridine-2-carboxylate	451.15	
111042-98-9	Methyl 3-hydroxythieno[3,2-b]pyridine-2-carboxylate	459.65	
111043-50-6	1-[(4-Chlorophenyl)methyl]-3-azetidinol		356.15
111043-53-9	1-[(3-Methoxyphenyl)methyl]-3-azetidinol		336.4
111047-54-2	Methyl (αS)-α-[[(4-methylphenyl)sulfonyl]amino]benzeneacetate	405.15	
111061-56-4	N-[(9H-Fluoren-9-ylmethoxy)carbonyl]-O-(triphenylmethyl)-L-serine	469.15	
111079-18-6	4-Chloro-5-iodo-6-methyl-2-(methylthio)pyrimidine	366.65	
111079-42-6	6-Chloro-5-iodo-2-methyl-4(1H)-pyrimidinone	524.65	
111080-65-0	1,1-Dimethylethyl N-(4-pyridinylmethyl)carbamate	345.65	
111087-18-4	N-(Aminomethyl)-N′-phenylurea	388.65	
111098-20-5	N-2-Pyridinyl-1H-benzotriazole-1-methanamine	410.65	
1111-82-6	Germane, dichloromethyl-	210.05	
1111-98-4	Phosphonic difluoride, (chloromethyl)-		385.65
111112-47-1	Trichothec-9-ene-3,4,8,15-tetrol, 12,13-epoxy-, 4,15-diacetate 8-propanoate, (3α,4β,8α)-	452.9	
111114-79-5	N,N-Dimethyl-4-(6-nitro-1H-benzimidazol-2-yl)benzenamine	502.15	
111140-92-2	3-[4-(Aminocarbonyl)phenoxy]propanoic acid	492.15	
111140-93-3	3-[3-(Trifluoromethyl)phenoxy]propanoic acid	358.15	
111141-01-6	3,4-Dihydro-4-oxo-2H-1-benzopyran-6-carboxamide	498.15	
111149-09-8	Armillaramide	388.15	
111150-27-7	Oleana-11,13(18)-dien-29-oic acid, 3,22,23-trihydroxy-, γ-lactone, (3β,4β,20β,22β)-	575.65	
111185-66-1	3-Ethyl 8-methyl 1,4-dihydro-4-oxo-3,8-quinolinedicarboxylate	430.15	
111189-32-3	Indeno[1,2,3-hi]chrysene	461.65	
111191-89-0	2,3-Dihydro-3-[(phenylseleno)methyl]benzofuran	308.15	
111196-85-1	α,2-Dimethyl-4-nitrobenzeneacetic acid	382.65	
111198-02-8	1-(Phenoxymethyl)benzotriazole	341.65	
111198-10-8	1-[(1E)-2-Phenylethenyl]-1H-benzotriazole	388.65	
1112-24-9	2-(Dimethylamino)-2-(hydroxymethyl)-1,3-propanediol	363.15	
1112-50-1	2,4-Dicyano-2-(2-cyanoethyl)butanamide	391.15	
111205-02-8	6-(1H-Imidazol-1-yl)-3-pyridinemethanol	398.4	
111205-70-0	Methyl 5-(hydroxyamino)-3,4-diphenyl-2-furancarboxylate	452.15	
111249-51-5	6-Bromo-1,4-dimethyl-3-nitro-9H-carbazole	501.15	
111291-97-5	1,1-Dimethylethyl 4-ethynylbenzoate	344.9	
111296-91-4	5,12-Dihydroindolo[3,2-a]carbazole	572.65	
11130-73-7	Tungsten carbide	3058.15	6273.15
111304-31-5	Methyl (2Z)-2-[(2-nitrophenyl)methylene]-3-oxobutanoate	364.65	
111316-27-9	7-Hydroxy-8,9-dimethoxy-4-methyl-5H-indeno[1,2-b]pyridin-5-one	472.15	
111340-39-7	1-(1-Methylethyl)-1H-1,2,4-triazole-5-methanol	332.65	
111359-62-7	2-Bromo-6-(methoxymethoxy)naphthalene	337.15	
1114-44-9	1,4,5,8-Octanetetracarboxylic acid	450.15	
111409-80-4	1,1′-(1,3,5-Hexatriyne-1,6-diyl)bis[1,1,1-tris(1-methylethyl)silane	414.15	
111421-97-7	6-Hydroxy-2-oxo-4,6-diphenyl-3-piperidinecarbothioamide	468.15	
11145-27-0	Aluminum alloy, base, Al 88,Si 12	850.15	
111468-95-2	4-(1-Oxobutyl)-1H-pyrrole-2-carboxylic acid	464.65	
111477-99-7	6,7-Dichloro-2,3-dihydro-2,2-dimethyl-4H-1-benzopyran-4-one	373.65	
111478-90-1	Ethyl 7-ethyl-α-oxo-1H-indole-3-acetate	426.15	
111492-69-4	1-(Phenylmethyl)-2,3-piperidinedione	420.15	
1115-67-9	Hydroxymaleic acid	425.15	
1115-82-8	(2S)-2-Methylpentanedioic acid	352.15	
111511-90-1	Tetrahydro-4H-pyran-4,4-dicarbonitrile	386.65	
111511-91-2	4H-Pyran-4,4-dimethanamine, tetrahydro-, hydrochloride (1:2)	533.15	
111550-48-2	1,10-Bis(4-formylphenyl)-1,4,7,10-tetraoxadecane	348.65	
111573-53-6	6H-Pyrrolo[1,2-b]pyrazol-6-one	310.15	
111578-32-6	Metobenzuron	375.15	
1116-77-4	4,4-Diethoxy-N,N-dimethyl-1-butanamine		365.65
1116153-15-1	(3S,10aS)-2,3-Dihydro-3-(hydroxymethyl)-2-methyl-7-nitro-10H-3,10a-epidithiopyrazino[1,2-a]indole-1,4-dione	454.65	
111669-24-0	N-Ethyl-2-(1-piperazinyl)-3-pyridinamine	320.15	
1117-96-0	Diazoethane		255.15
111721-75-6	2-Bromo-3-fluoroaniline	306.15	
111758-60-2	Methyl 2-(3-iodophenoxy)acetate	324.15	
111781-53-4	3-(Dimethylamino)-1-(2-pyrazinyl)-2-propen-1-one	411.15	
111787-87-2	5-(4-Methoxyphenyl)-2-methyl-3-furancarboxylic acid	478.4	
1118-03-2	Azidotrimethylstannane	393.65	
111821-58-0	(3S)-3-Amino-1-hydroxy-2-pyrrolidinone	428.65	
111822-81-2	2-[2-(Acetyloxy)ethoxy]-1,4-benzenedicarboxylic acid	492.65	
111849-30-0	Formamide, N-(4-oxo-6-phenylthieno[2,3-d]pyrimidin-3(4H)-yl)-	526.15	
111872-58-3	Halfenprox		564.15
111873-12-2	3-[(2-Aminophenyl)amino]-2-methyl-2-propenal	455.15	
1118786-86-9	1,1-Dimethylethyl N-(6-oxospiro[3.3]hept-2-yl)carbamate	367.15	
111881-78-8	4-Chloro-γ,ε-dioxobenzenehexanoic acid	417.65	
111887-72-0	1-(2-Fluoro-4-pyridinyl)ethanone	311.4	
1119-48-8	4-(Methylamino)butyric acid	417.15	
1119-63-7	9-Methyldecanoic acid	302.4	
1119-72-8	cis,cis-Muconic acid	468.15	
1119-73-9	(2E,4Z)-2,4-Hexadienedioic acid	463.65	
1119449-40-9	9H-Fluoren-9-ylmethyl 3-oxo-1-piperazinecarboxylate	423.65	
111945-86-9	3-Hydroxy-5-[4-(1-methylethyl)phenyl]-2-cyclohexen-1-one	452.65	
111946-85-1	1-(4-Bromophenyl)-2-(2-chlorophenoxy)ethanone	403.65	
1119531-25-7	Phenol, 4-(1H-imidazol-2-yl)-, 1-benzoate	390.15	
111955-05-6	rel-1-Methyl (1R,2S)-1,2-cyclohexanedicarboxylate	341.65	
111957-48-3	3-[[6-Deoxy-2-O-[6-O-[(2E)-3-(4-hydroxyphenyl)-1-oxo-2-propen-1-yl]-β-D-glucopyranosyl]-α-L-mannopyranosyl]oxy]-5,7-dihydroxy-2-(4-hydroxyphenyl)-4H-1-benzopyran-4-one	468.15	
111960-26-0	1-Butyl-9H-carbazole	329.65	
111971-30-3	2-Bromo-4-(4-methylphenyl)pyridine	327.65	
111971-31-4	4,4′-Bis(4-methylphenyl)-2,2′-bipyridine	504.65	
111992-17-7	2-(2,4-Dichloro-5-nitrophenyl)-4-(difluoromethyl)-2,4-dihydro-5-methyl-3H-1,2,4-triazol-3-one	369.15	
111992-18-8	2-(5-Amino-2,4-dichlorophenyl)-4-(difluoromethyl)-2,4-dihydro-5-methyl-3H-1,2,4-triazol-3-one	411.15	
112-62-9	Methyl oleate	253.25	
112-65-2	Dodecylguanidine	409.15	
112-83-4	2-(Octadecyloxy)acetic acid	335.65	
1120-65-6	1,3-Thiaselenole-2-thione	333.15	
1120-81-6	3,4-Dihydro-N-hydroxy-2H-pyrrol-5-amine	433.15	
112022-81-8	(3aS)-Tetrahydro-1-methyl-3,3-diphenyl-1H,3H-pyrrolo[1,2-c][1,3,2]oxazaborole	353.65	
112055-35-3	Ethyl 1-(3-chlorophenyl)-5-(trifluoromethyl)-1H-pyrazole-4-carboxylate	340.15	
112055-36-4	Ethyl 1-(4-chlorophenyl)-5-(trifluoromethyl)-1H-pyrazole-4-carboxylate	325.15	
112078-72-5	Coutareagenin	440.15	
112080-08-7	2-Fluoro-6-(trifluoromethyl)quinoxaline	386.4	
112093-28-4	Endoxifen	414.15	
1121-23-9	3-Hydroxypyridin-4-one	509.15	
1121-34-2	(3R)-Dihydro-3-hydroxy-2,5-furandione	348.65	
1121-46-6	2-Furanethanamine	477.15	
1121-81-9	1,3,2,4-Dithiadiphosphetane, 2,4-dimethyl-, 2,4-disulfide	481.65	
1121-98-8	3-Morpholinemethanol, 3-methyl-, hydrochloride (1:1)	455.65	
112101-75-4	Benzenesulfonamide, 5-[(2R)-2-aminopropyl]-2-methoxy-, hydrochloride (1:1)	550.15	
112101-81-2	(R)-5-(2-Aminopropyl)-2-methoxybenzenesulfonamide	439.65	
112110-08-4	4,6-Bis(trifluoromethyl)-2-pyridinamine	344.15	
112111-44-1	(S)-(+)-Modafinic acid	459.65	
112111-47-4	(+)-Modafinil	426.4	
112121-99-0	2-(4-Morpholinylmethyl)-3-(phenylamino)-1H-inden-1-one	468.15	
1121586-29-5	Benzoic acid, 4-fluoro-3-iodo-, methyl ester	315.65	
112164-03-1	Phosphonic acid, [2-(2-benzothiazolyl)ethenyl]-, diphenyl ester	393.65	
112170-33-9	4-(4-Pyridinyl)benzeneacetonitrile	389.9	
112182-48-6	2-Ethyl-6-nitro-4(1H)-quinolinone	593.15	
112193-40-5	5-Hydroxy-3-pyridinecarbonyl azide	411.15	
112193-42-7	5-Bromo-3-pyridinecarbonyl azide	360.15	
112197-15-6	3-Iodo-2-methoxypyridine	339.15	
1122-08-3	2,4-Dihydro-3H-thieno[3,2-b]pyrrol-3-one	461.65	
1122-20-9	2,3-Dimethyl-2-cyclohexen-1-one	475.65	
1122-57-2	5-(1-Methylethenyl)-1,3-dioxane		439.15
1122-86-7	4-Ethoxypiperidine		448.15
1122-87-8	Piperidine, 4-ethoxy-, hydrochloride (1:1)	419.15	
112240-59-2	Proclavaminic acid	405.65	
1122410-32-5	Phenylmethyl N-[(1-methylethoxy)methyl]carbamate	344.9	
112244-38-9	5-(2-Aminopropyl)-2-methoxybenzenesulfonamide	440.15	
112279-56-8	1-(4-Amino-2-fluorophenyl)ethanone	384.15	
112279-63-7	4-Amino-3-bromo-2,5-difluorobenzaldehyde	405.65	
112279-73-9	N-(4-Cyano-2,3-difluorophenyl)acetamide	449.15	
112290-03-6	1-Chloro-4,5-difluoro-2-(trifluoromethyl)benzene		408.15
1123-06-4	(6R)-Hexahydro-6-methyl-2H-azepin-2-one	372.65	
1123-41-7	2-Azaspiro[3.3]heptane-2-ethanamine		320.65
1123-56-4	2,6-Dimethylbenzaldehyde	284.15	500.15
1123-66-6	1,2,4,6-Tetramethylpiperazine		440.9
1123-85-9	2-Phenyl-1-propanol	399.15	
1123-92-8	5-Chloro-2,1,3-benzoselenadiazole	391.65	
112334-43-7	4,5-Bis(phenylmethoxy)-2-pyridinemethanol	369.75	
112348-46-6	L-Proline, 2-(2-propen-1-yl)-, methyl ester, hydrochloride (1:1)	395.9	
112372-06-2	Furo[2,3-c]pyridine-2-carboxaldehyde	393.9	
112372-07-3	Furo[3,2-c]pyridine-2-carboxaldehyde	402.9	
112372-08-4	Furo[3,2-b]pyridine-2-carboxaldehyde, oxime	468.65	
112372-12-0	Furo[2,3-c]pyridine-2-carbonitrile	402.15	
112372-20-0	3-Hydroxy-2-pyridineacetonitrile	417.15	
112372-21-1	4-Hydroxy-α-(hydroxymethylene)-3-pyridineacetonitrile	499.15	
112372-23-3	Furo[2,3-c]pyridine-3-carboxamide	501.15	
112390-98-4	Pyridinium, 2-(1,3-dioxolan-2-yl)-1-methyl-, iodide (1:1)	396.15	
1124-02-3	3,5-Dimethyl-1-propyl-1H-pyrazole		463.15
1124-14-7	1-Bromo-4-cyclopropylbenzene	288.15	
1124-15-8	3,5-Dimethyl-1-thiocarboxamidopyrazole	371.65	
1124-21-6	6-(Dimethylamino)-4(3H)-pyrimidinone	546.15	
1124-22-7	2-(Dimethylamino)-4(3H)-pyrimidinethione	434.65	
1124-40-9	1,2-Benzenediol, 4-(aminomethyl)-, hydrochloride (1:1)	445.15	
1124-96-5	1-Hydroxy-α,α-dimethylcyclohexanemethanol	356.15	
112404-29-2	5,5-Dimethyl-2-[2-(4-nitrophenyl)-2-oxoethyl]-1,3-cyclohexanedione	472.15	
112408-68-1	(3R,4S)-3,4-Dihydro-3-[(4-hydroxyphenyl)methyl]-4-methoxy-2H-1-benzopyran-3,7-diol	373.65	
112448-39-2	3′-Hydroxy-4′,5,6,7,8-pentamethoxyflavone	443.65	
112448-70-1	5-(1E)-1-Tetradecen-1-yl-1,3-benzodioxole	308.65	
1125-02-6	N-(1-Cyanocyclohexyl)formamide	447.65	
1125-32-2	Pyrrole-2,3-dicarboxylic acid	498.15	
1125-39-9	1,9-Dihydro-1-methyl-6H-purin-6-one	579.15	
1125-40-2	3-Methyl-1H-indol-5-ol	381.65	
1125-62-8	4-Chloro-5,6,7,8-tetrahydroquinazoline	356.15	
1125-86-6	1-Propanone, 1-cyclohexyl-, oxime	346.15	365.15
112513-80-1	6,7-Dihydro-2-methyl-5H-pyrrolo[1,2-a]imidazol-7-ol	469.4	
112575-13-0	6-Bromo-N,N-dimethyl-2-pyridinamine	329.65	
112575-84-5	4-Pyrrol-1-ylbenzoic acid hydrazide	454.15	
112598-28-4	N-[2-[[(3-Bromo-2-pyridinyl)methyl]thio]ethyl]-3-nitro-1H-pyrrol-2-amine	421.65	
1126-25-6	7-Methylpyrazolo[1,5-a]pyrimidin-2-amine	461.15	
112626-52-5	2-(2H-Tetrazol-5-yl)piperidine	560.15	
1126433-40-6	9H-Fluoren-9-ylmethyl N-[(1S)-2-(1H-benzotriazol-1-yl)-1-[(1,1-dimethylethoxy)methyl]-2-oxoethyl]carbamate	337.75	
1126433-42-8	9H-Fluoren-9-ylmethyl N-[(1S)-2-(1H-benzotriazol-1-yl)-1-[[4-(1,1-dimethylethoxy)phenyl]methyl]-2-oxoethyl]carbamate	372.9	
112649-48-6	BR-xanthone A	454.15	
112677-06-2	(2E)-3-(Dimethylamino)-1-(1H-pyrrol-2-yl)-2-propen-1-one	465.15	
1127-38-4	Benzeneethanol, β-amino-α,α-dimethyl-, hydrochloride (1:1)	447.15	
1127-60-2	2,4-Dichloro-3-ethyl-5-methylphenol	324.15	
1127-75-9	9-Methyl-6-(methylthio)-9H-purine	439.15	
1127-86-2	2-Chloro-5,6,7,8-tetrahydro-4-quinazolinamine	457.15	
1127-98-6	Methyl 3-amino-5-methyl-2-pyrazinecarboxylate	439.15	
1127-99-7	Cyclohexanecarboxylic acid, 2-amino-, ethyl ester, hydrochloride (1:1), (1R,2S)-rel-	405.15	
112741-50-1	1,1-Dimethylethyl (2S,3R)-6-oxo-2,3-diphenyl-4-morpholinecarboxylate	480.15	
112758-90-4	1,2,3,4-Tetrahydro-1-(4-methoxyphenyl)pyrrolo[1,2-a]pyrazine	345.65	
112776-07-5	N-[[(Diphenylmethylene)amino]carbonyl]benzamide	383.15	
112776-85-9	2,6-Dimethyl 4-(2-phenylethynyl)-2,6-pyridinedicarboxylate	420.15	
112794-29-3	1,2,3,4-Tetrahydro-3-isoquinolinecarboxamide	435.65	
112799-20-9	Tetrahydro-4-(1-pyrrolidinyl)-2H-pyran-4-carbonitrile	325.15	
1128-46-7	1,5-Dihydro-4,1-benzothiazepin-2(3H)-one	493.65	
1128-55-8	3-Chloro-1-phenyl-1H-pyrazole	304.65	
1128-56-9	1-Phenyl-1H-pyrazol-3-amine	374.15	
1128-57-0	1,2-Dimethoxy-4,5-dimethylbenzene	316.4	
1128-72-9	Carbonochloridic acid, 2-formylphenyl ester	356.15	
1128-77-4	3,9-Dimethyl-3,9-diazabicyclo[4.2.1]nonan-4-one		427.65
1128-90-1	5-Nitro-2,1,3-benzoselenadiazole	493.65	
112809-25-3	4-(1H-1,2,4-Triazol-1-ylmethyl)benzonitrile	382.15	
112811-64-0	2,4,5-Trifluoro-3-methoxybenzamide	404.65	
1128181-21-4	N2-[(9H-Fluoren-9-ylmethoxy)carbonyl]-N6-(1-oxododecyl)-L-lysine	400.15	
112822-77-2	2,4-Difluoro-3-methyl-5-nitrobenzenamine	379.65	
112822-79-4	5-Bromo-2,4-difluoro-3-methylbenzenamine	341.4	
112844-43-6	Pseudourea, 2-(cyclohexylmethyl)-2-thio-, hydrobromide	426.15	
112856-55-0	(2E,4E)-5-(4-Chlorophenyl)-3-methoxy-2,4-pentadienoic acid	445.65	
1129-46-0	(+)-2-Phenoxypropionic acid	358.15	
1129-80-2	C,C′-1,4-Phenylene dicyanate	384.65	
112914-09-7	4-(Acetylamino)-5-chloro-2-ethoxybenzoic acid	443.15	
112922-55-1	Cericlamine	465.15	
112928-28-6	1,1′-Dibromo-1,1′-bicyclohexyl	403.15	
112984-60-8	Ulifloxacin	489.65	
1130-49-0	2,2,3-Trimethyl-5-oxo-3-cyclopentene-1-acetic acid	379.15	
113028-17-4	Ethyl 6-fluoro-1-methyl-4-oxo-7-(1-piperazinyl)-1H,4H-[1,3]thiazeto[3,2-a]quinoline-3-carboxylate	497.15	
113081-50-8	4-Bromo-3-methoxybenzeneacetonitrile	325.65	
1131-03-9	Benzo[b]thiophene-3-methanol, α-(aminomethyl)-, hydrochloride (1:1)	486.15	
1131-34-6	6-Amino-2-methyl-4-quinolinol	585.15	