CAS	name	Tm	Tb
1131-48-2	Pyridine, 3-phenyl-, 1-oxide	394.15	
1131-53-9	2-Methoxy-7-methylnaphthalene	362.65	
1131-90-4	1-Benzo[b]thien-5-ylethanone oxime	423.15	
1131-94-8	3-Hydroxy-4-methoxybenzeneacetic acid	396.65	
113100-53-1	1-Methyl-3-(trifluoromethyl)-1H-pyrazole-4-carboxylic acid	473.65	
113104-27-1	2-(3-Methylphenoxy)butanoic acid	346.15	
113104-28-2	2-[4-(1,1-Dimethylethyl)phenoxy]butanoic acid	363.65	
113118-82-4	5-Chloro-3-pyridinecarboxaldehyde	342.65	
1131604-99-3	5-Bromo-4-chloro-2,3-pyridinediamine	437.15	
1131614-23-7	Methyl 4-(difluoromethoxy)-3-iodobenzoate	329.15	
1131615-01-4	Benzoic acid, 3-bromo-4-propyl-	362.65	
113162-38-2	5-Bromo-2,3-dihydro-N-methyl-1H-indole-6-sulfonamide	434.65	
1132-38-3	N-Cyclohexylidenebenzenamine	398.65	
1132-41-8	N-Cyclohexyl-3-methylbutanamide	379.4	
1132-62-3	Methyl 2-(2-phenylhydrazinylidene)acetate	402.65	
1132-69-0	O-(4-Nitrophenyl) carbonochloridothioate	335.4	
113204-20-9	3-Chloro-N-4-pyridinylbenzamide	455.65	
113204-24-3	3-Fluoro-N-4-pyridinylbenzamide	444.65	
113204-25-4	4-Fluoro-N-4-pyridinylbenzamide	397.15	
113225-19-7	(3S,4R)-1-Methyl-4-(2,4,6-trimethoxyphenyl)-3-piperidinol	384.65	
113225-21-1	1-[2-Hydroxy-3-[(3S,4R)-3-hydroxy-1-methyl-4-piperidinyl]-4,6-dimethoxyphenyl]ethanone	455.15	
113237-19-7	Ethyl 5-fluoro-1,2-dihydro-6-hydroxy-2-oxo-3-pyridinecarboxylate	475.65	
113237-21-1	6-(4-Acetyl-1-piperazinyl)-2-chloro-5-fluoro-3-pyridinecarbonitrile	439.65	
113258-85-8	2-Bromo-1-(2-iodo-4,5-dimethoxyphenyl)ethanone	354.15	
113259-81-7	5-(4-Morpholinyl)-2-nitrobenzaldehyde	438.15	
113271-90-2	Ethyl 2-chloro-4,6-diphenyl-5-pyrimidinecarboxylate	385.65	
113275-14-2	N-[11-(16-Hydroxy-10-methoxy-11,21-dimethyl-12,18-dioxo-3,7,19,27-tetraoxa-29,30,31-triazatetracyclo[24.2.1.12,5.16,9]hentriaconta-2(31),4,6(30),8,13,24,26(29),28-octaen-20-yl)-4,10-dimethoxy-5,9-dimethyl-6-oxo-1-undecenyl]-N-methylformamide	345.15	
113276-94-1	H 8 dihydrochloride	494.65	
113276-96-3	Valilactone	330.65	
1133-18-2	β,β-Dimethyl-α-phenyl-1-aziridineethanol	369.65	
1133-63-7	2,3-Dihydroxybiphenyl	387.15	
1133-78-4	2,3,5,6,7,8-Hexahydro-2-oxo-4-quinazolinecarboxylic acid	462.65	
1133-81-9	1-Naphthalenol, 1-carbamate	449.65	
1133-96-6	5-Formyl-2,4-dimethyl-1H-pyrrole-3-propanoic acid	423.65	
113310-92-2	Ethyl 2-(1-pyrrolidinylamino)-1-cyclopentene-1-carboxylate	317.15	
1133314-12-1	2-Bromo-4-(bromomethyl)-1-(3-bromopropyl)benzene	345.65	
113334-61-5	2,3-Dihydro-1-[(2-hydroxyethyl)amino]-1H-inden-2-ol	426.15	
113337-37-4	2-Chloro-1-(2-nitrophenyl)ethanone	339.65	
113391-96-1	1,2-Cyclohexanediol, monomethanesulfonate, trans-	351.65	
1133961-31-5	2-Chloro-6-iodo-3-propylpyridine	318.95	
1134-51-6	2-Chloro-6-quinoxalinecarbonyl chloride	401.15	
1134-56-1	2-Ethoxy-5-phenyl-1,3,4-oxadiazole	317.15	
113400-36-5	1-(1,1-Dimethylethyl) 2-(phenylmethyl) (2S)-5-oxo-1,2-pyrrolidinedicarboxylate	342.65	
1134621-22-9	2-Chloro-5-(2S)-2-piperidinylpyridine	328.15	
1134621-26-3	2-Chloro-5-(2R)-2-piperidinylpyridine	329.15	
113482-94-3	Tetrahydrobisdemethoxycurcumin	374.65	
113496-13-2	3-(2-Methoxy-2-oxoethoxy)benzoic acid	390.15	
113496-14-3	1-Methyl 3-carboxybenzeneacetate	365.65	
1135-15-5	3-(3-Hydroxy-4-methoxyphenyl)propionic acid	416.65	
1135-63-3	β-Ethyl-β-methyl-α-phenyl-1-aziridineethanol	331.65	
1135-74-6	γ-Cyano-γ-methylbenzenebutanoic acid	350.15	
113501-99-8	2-Nitro-5-propoxybenzenamine	371.65	
113520-12-0	N-(3-Hydroxy-2-pyridinyl)-N′-methylthiourea	472.65	
1135282-82-4	4-(4-Morpholinyl)benzoic acid hydrazide	556.15	
113538-23-1	(2E)-3-[1,1′-Biphenyl]-4-yl-2-propen-1-ol	434.65	
113558-15-9	Icariside II	475.65	
113558-92-2	1-Benzoyl-3-pyrrolidinecarboxylic acid	385.15	
113589-27-8	Methyl 4-bromo-3-hydroxy-5-phenyl-2-thiophenecarboxylate	359.15	
113589-54-1	3-Ethoxy-4,5-dimethyl-2-thiophenecarboxylic acid	398.65	
1136-63-6	4,6-Dichloro-3-ethyl-2-methylquinoline	350.65	
1136-88-5	2-[(5,6,7,8-Tetrahydro-4-quinazolinyl)thio]acetic acid	448.65	
113617-63-3	Orbifloxacin	530.65	
113697-58-8	Ethyl 1,2,3,4-tetrahydro-6-methyl-4-(3-methylphenyl)-2-thioxo-5-pyrimidinecarboxylate	467.65	
1137-04-8	5-Methoxy-α-methyltryptamine	375.15	
1137-13-9	N2,N2,N4,N4-Tetramethyl-5-nitro-2,4-pyrimidinediamine	363.15	
1137-61-7	4-(4-Bromophenyl)dihydro-2H-pyran-2,6(3H)-dione	438.15	
1137-69-5	2-Chlorophenazine	412.15	
1137-77-5	4-Amino-4′-methoxybiphenyl	419.9	
1137-80-0	N,N-Dimethyl-4-(4-pyridinyl)benzenamine	507.15	
1137-87-7	5-(4-Hydroxy-1-butynyl)-2,2′-bithienyl	340.15	
113712-98-4	Tenatoprazole	447.65	
113732-63-1	α-Hydroxy-2-methyl-4-thiazoleacetonitrile	389.65	
1137622-03-7	5-Amino-2-methoxybenzaldehyde	340.15	
1138-55-2	4-(2-Methylpropoxy)benzenesulfonamide	378.4	
113845-69-5	4-(4-Trifluoromethylphenyl)morpholine	330.65	
113866-42-5	Brassitin	383.65	
113866-44-7	Brassicanal A	506.65	
113866-89-0	1-(2,4-Dihydroxyphenyl)-3-[2-[(2E)-3,7-dimethyl-2,6-octadien-1-yl]-3,4-dihydroxyphenyl]-1-propanone	407.15	
113893-02-0	5-Bromo-2-methoxy-4,6-dimethyl-3-pyridinecarbonitrile	369.65	
1139-34-0	1,3-Dihydro-3-hydroxy-3-[2-(hydroxyimino)propyl]-2H-indol-2-one	452.65	
1139-83-9	Urolithin B	520.15	
113900-63-3	Carbamothioic acid, [(1-methoxy-1H-indol-3-yl)methyl]-, S-methyl ester	368.15	
113934-26-2	1-(4-Nitrophenyl)-1H-1,2,3-triazole-4-carboxaldehyde	458.65	
113934-27-3	1-(4-Chlorophenyl)-1H-1,2,3-triazole-4-carboxaldehyde	433.15	
113940-14-0	5-(Chloromethyl)-N-(4-methylphenyl)-1,3,4-thiadiazole-2-carboxamide	433.65	
113944-48-2	trans-p-Coumaryl diacetate	318.15	
113944-50-6	2,4-Difluoro-6-nitro-3-quinolinecarbonitrile	401.65	
113975-33-0	N-(3-Iodo-4-pyridinyl)-2,2-dimethylpropanamide	431.15	
113981-49-0	7-O-Methyldihydrowogonin	372.65	
113994-37-9	3-Ethyl 2-[(2-aminoethoxy)methyl]-4-(2-chlorophenyl)-1,4-dihydro-6-methyl-3,5-pyridinedicarboxylate	442.15	
114-04-5	Neuraminic acid	459.15	
114-84-1	Benzenepropanoic acid, sodium salt (1:1)	597.15	
1140-31-4	9-Ethenyl-9H-carbazol-3-amine	378.65	
1140-36-9	3-(4-Bromophenyl)-2,1-benzisoxazole	428.15	
114012-40-7	2,2-Bis(chloromethyl)butanoyl chloride	312.15	
114037-86-4	N-[4-(1,2,2-Tricyanoethyl)phenyl]acetamide	424.15	
114058-73-0	N2,N2-Dimethyl-2,7-quinolinediamine	378.65	
114058-75-2	N-(2-Amino-4-methyl-7-quinolinyl)acetamide	511.15	
114058-80-9	N-(4-Methyl-7-quinolinyl)acetamide	474.65	
114081-08-2	N-(Phenylmethyl)-3-pyridinamine	360.15	
114090-43-6	2,3-Dihydro-6-hydroxy-4-methoxy-5-methyl-1H-isoindol-1-one	488.65	
114097-28-8	N-(3,5-Dimethylphenyl)-4-methylbenzenesulfonamide	364.15	
1140972-31-1	Ethyl (1S,2R)-2-[[(1,1-dimethylethoxy)carbonyl]amino]cyclopentanecarboxylate	339.65	
1141-24-8	3-(4-Bromophenyl)pentanedioic acid	450.65	
1141-39-5	1-(4′-Amino[1,1′-biphenyl]-4-yl)ethanone	447.15	
114108-86-0	2-(Chloromethyl)-4,6-dimethoxypyrimidine	314.15	
114125-59-6	Methyl α-hydroxy-2-methyl-α-(trifluoromethyl)-1H-indole-3-acetate	364.15	
114127-17-2	(2E,4E)-7-[4-(Dimethylamino)phenyl]-4,6-dimethyl-7-oxo-2,4-heptadienoic acid	349.65	
114127-45-6	1H-Indole-3-ethanamine, 6-methoxy-α-methyl-, (S)-	383.65	
114130-69-7	7-Ethoxy-6-methoxy-3(2H)-isoquinolinone	522.15	
114144-17-1	5-Iodo-1H-indole-3-carboxaldehyde	493.15	
114150-42-4	5-(4-Chlorophenyl)-1-(4-methoxyphenyl)-1H-pyrazole-3-propanoic acid	400.15	
114163-48-3	3,7-Dihydro-7-phenyl-4H-pyrazolo[3,4-d]-1,2,3-triazin-4-one	409.15	
114176-54-4	Carbamic acid, [[(6-chloropyrazinyl)amino]iminomethyl]-, ethyl ester	372.65	
1142-30-9	N-(4-Ethoxyphenyl)-N′-2-propen-1-ylthiourea	370.65	
1142-31-0	N-Butyl-N′-(4-methoxyphenyl)thiourea	337.15	
1142-40-1	Propanenitrile, 3,3′-(1,4-cyclohexanediyldiimino)bis-	388.65	
1142196-34-6	4-Bromo-2-propylthiazole	372.15	
114247-06-2	(S)-Fluoxetine hydrochloride	412.65	
114247-09-5	(-)-Fluoxetine hydrochloride	413.15	
114297-20-0	Soyacerebroside I	467.65	
1143-70-0	Urolithin A	615.65	
114306-27-3	4-Quinolinamine, 7-chloro-, hydrochloride (1:1)	562.9	
114306-28-4	4-Quinolinamine, 8-chloro-, hydrochloride (1:1)	560.65	
114322-13-3	2,1,3-Benzoxadiazole-4-sulfonamide	431.15	
1144-27-0	2-Pyrazinecarboxamide, 3,5-diamino-6-chloro-N-[(dimethylamino)iminomethyl]-, hydrochloride (1:1)	548.15	
114414-78-7	5-Methyl-5H-quinindoline	377.65	
114417-35-5	7-Fluoro-2,3-dihydro-4(1H)-quinolinone	375.2	
114420-56-3	Clodinafop	484.65	
114432-00-7	Quinoline, 8-chloro-5,6,7,8-tetrahydro-, hydrochloride (1:1)	513.15	
114433-95-3	2-[5-(4-Fluorophenyl)-3-(1-methylethyl)-1H-pyrazol-1-yl]pyridine	353.65	
114438-32-3	4-(Hydroxyamino)-N-2-pyrimidinylbenzenesulfonamide	493.15	
114468-03-0	3-(1,1-Difluoroethyl)pyridine		441.15
114474-27-0	4-(4-Nitrophenyl)-1-phenyl-1H-pyrazole	548.65	
114498-56-5	2-(1,1-Dimethylethyl)thiazolo[5,4-c]pyridine	312.15	
1145-58-0	4-(3-Chlorophenoxy)benzoic acid	408.15	
114567-47-4	Ganoderiol F	391.15	
1145670-37-6	6-Chloro-1-methyl-1H-benzimidazole-2-carboxamide	520.2	
1145670-48-9	5,6-Dichloro-1-methyl-1H-benzimidazole-2-carboxamide	519.35	
1145671-71-1	N8-Cyclopentyl-9-ethyl-9H-purine-6,8-diamine	494.15	
114570-69-3	(2E)-3-(2-Furanyl)-1-(4-methoxyphenyl)-2-propen-1-one	317.15	
1146-07-2	8-(Ethylamino)-8-phenyl-1,2,3,4,5,6-hexathiocane-7-thione	412.15	
1146-41-4	4-Methoxy-N-phenylbenzenesulfonamide	380.65	
1146221-86-4	1-(1,1-Dimethylethyl)-4-(trifluoromethyl)-1H-pyrrolo[2,3-b]pyridine-3-carbonitrile	435.15	
1146221-87-5	4,6-Bis(trifluoromethyl)-1H-pyrrolo[2,3-b]pyridine	461.15	
114645-19-1	1,1-Dimethylethyl N-[(1S,2S)-1-(2-diazoacetyl)-2-methylbutyl]carbamate	359.15	
114648-67-8	1H-Indol-2-yl-1H-indol-3-ylmethanone	532.15	
114676-59-4	D-Proline, 4-hydroxy-, methyl ester, hydrochloride (1:1), (4R)-	376.15	
1146955-47-6	5-Chloro-α-[(dimethylamino)methylene]-2-benzoxazoleacetaldehyde	412.9	
1147-64-4	4-(4,5-Dichloro-6-oxo-1(6H)-pyridazinyl)benzoic acid	588.15	
1147-67-7	3,6-Dibromo-9-(2-chloroethyl)-9H-carbazole	429.65	
114702-59-9	(3β,4β,20α)-3,23-Dihydroxy-22-oxoolean-12-en-29-oic acid	591.65	
114744-51-3	7-Bromo-1,2,3,4-tetrahydroquinoline	341.65	
114744-53-5	1-(6-Bromo-2,3-dihydro-1H-indol-1-yl)ethanone	411.4	
114748-71-9	N-[3-[4-Amino-7-[(2R,5S)-tetrahydro-5-(hydroxymethyl)-2-furanyl]-7H-pyrrolo[2,3-d]pyrimidin-5-yl]-2-propyn-1-yl]-2,2,2-trifluoroacetamide	441.15	
114763-28-9	(1S,2R)-3-Ethenyl-3,5-cyclohexadiene-1,2-diol	330.65	
114772-38-2	Methyl 4′-(bromomethyl)biphenyl-2-carboxylate	314.15	
1147866-54-3	(2E)-3-(Dimethylamino)-1-(4-fluoro-3-nitrophenyl)-2-propen-1-one	406.65	
114820-13-2	Ethanone, 1,1′-(2,6-dimethyl-1,4-phenylene)bis-	334.9	
114829-14-0	2-(Diethylamino)ethyl 6,7-dichloro-4-[(dimethylamino)methyl]-5-hydroxy-2-methyl-3-benzofurancarboxylate	392.65	
114833-96-4	4-Methoxy-6-methyl-2-(1H-pyrazol-1-yl)pyrimidine	325.9	
114834-04-7	4-Chloro-2-(1H-imidazol-1-yl)pyrimidine	412.65	
114834-10-5	4-Phenoxy-6-(1H-pyrazol-1-yl)pyrimidine	366.15	
114859-50-6	N-(3,5-Dimethoxyphenyl)-2-propenamide	379	
114872-54-7	1,3-Diethyl 2-(acetylamino)-2-[(3-chlorophenyl)methyl]propanedioate	382.65	
114935-96-5	4-[(Phenylthio)methyl]-3-thiophenecarboxylic acid	423.15	
1149360-33-7	Methyl N-[1-methyl-6-(propylthio)-1H-benzimidazol-2-yl]carbamate	415.9	
114995-48-1	N-(2-Bromo-4,6-difluorophenyl)-2,2-dimethylpropanamide	413.4	
114998-55-9	4-(2-Chloroethyl)piperidine	422.65	
115-64-0	α-Cyclohexyl-α-[2-(diethylamino)ethyl]benzenemethanol	324.4	
1150-20-5	4-(3-Azabicyclo[3.2.2]non-3-ylsulfonyl)benzenamine	423.15	
1150-90-9	Estra-1,3,5(10),16-tetraen-3-ol	402.4	
115012-10-7	5,6-Dihydro-5-hydroxy-7H-pyrrolo[3,4-b]pyridin-7-one	458.15	
115012-12-9	3-(Hydroxymethyl)-2-pyridinecarboxamide	427.15	
115051-74-6	1,5-Methano-8H-pyrido[1,2-a][1,5]diazocin-8-one, 1,2,3,4,5,6-hexahydro-, (1R,5S)-, perchlorate (1:1)	517.15	
115063-39-3	Desmethylxanthohumol	427.65	
1151-75-3	3-Amino-N-(aminoiminomethyl)-6-chloro-5-(methylpropylamino)-2-pyrazinecarboxamide	487.65	
115121-21-6	1,2,3,7-Tetrahydro-6H-pyrrolo[2,3-b]pyridin-6-one	495.65	
1151944-58-9	(5Z)-4-Oxo-5-[[4-(phenylmethoxy)phenyl]methylene]-2-thioxo-3-thiazolidineacetic acid	483.15	
1152-75-6	N,N′-Bis(4-methoxyphenyl)methanimidamide	388.65	
115210-54-3	2,3-Dihydro-2-methyl-5-nitro-1H-indole	351.65	
115240-92-1	Methyl β-hydroxy-4-methoxy-α-methylenebenzenepropanoate	335.65	
115250-38-9	(2R,3S,4S,5S)-5-Hydroxy-2,3,4-tris(phenylmethoxy)-5-[(phenylmethoxy)methyl]cyclohexanone	357.65	
115270-12-7	Carbamic acid, 2,4-hexadienyl-, 1,1-dimethylethyl ester, (E,E)-	325.15	
115271-80-2	Methyl 2-[(aminothioxomethyl)amino]benzoate	397.15	
115287-37-1	N-Methyl-4-nitro-N-[2-(4-nitrophenoxy)ethyl]benzeneethanamine	347.15	
115311-41-6	2-(2-Pyridinyl)-4-thiazolecarboxylic acid	498.15	
115313-20-7	Methyl (βR)-β-[[(1,1-dimethylethoxy)carbonyl]amino]benzenebutanoate	320.65	
115344-47-3	Siguazodan	541.65	
115388-32-4	5,5′-Diethoxy-3,3′,4,4′-tetrahydro-8,8′-dimethoxy-1,1′-binaphthalene	497.65	
1154-25-2	EIPA	480.65	
1154-79-6	3-Amino-N-(aminoiminomethyl)-5-(butylmethylamino)-6-chloro-2-pyrazinecarboxamide	481.65	
115404-57-4	Niloticin	423.15	
115436-73-2	Ipazilide	345.15	
115445-31-3	Acetamide, 2,2,2-trifluoro-N-3-pyrrolidinyl-, hydrochloride (1:1)	453.15	
115464-77-2	1-(7-Benzofuranyl)-4-[[5-(4-fluorophenyl)-1H-pyrrol-2-yl]methyl]piperazine	391.65	
115464-89-6	2-(3-Chlorophenyl)-1H-pyrrole	344.15	
115486-12-9	Quinoline, 2-bromo-7-methoxy-4-methyl-	386.65	
1155-77-7	1,2,3,4-Tetrachloro-7,7-dimethoxy-5-phenylbicyclo[2.2.1]hepta-2,5-diene	367.15	
1155361-00-4	α-(2,4-Difluorophenyl)-α-[[[(2-fluorophenyl)methyl]-2-propen-1-ylamino]methyl]-1H-1,2,4-triazole-1-ethanol	350.8	
115542-00-2	N-(3-Hydroxy-2-pyridinyl)-N′-phenylurea	470.15	
115575-12-7	6-(1H-Imidazol-1-ylmethyl)-1H-benzimidazole	471.45	
1155814-14-4	1,1′-Diethyl 4,4′-[[3,6,10,11-tetrakis(pentyloxy)-2,7-triphenylenediyl]bis(oxy)]bis[butanoate]	336.85	
1156-78-1	2′-Hydroxygenistein	544.65	
1156-92-9	4-Androstenediol	428.65	
115610-29-2	(E)-Caffeic acid phenethyl ester	395.15	
115610-36-1	Avenanthramide D	493.15	
115614-48-7	3-[4-(1,1-Dimethylethyl)phenyl]cyclohexanone	311.4	
115615-21-9	2-Bromo-4,6-dichlorobenzenemethanol	384.65	
115619-01-7	4-(4-Ethyl-1-piperazinyl)benzenamine	347.15	
115652-65-8	2-(Trifluoromethyl)pyrido[2,3-b]pyrazine	378.15	
115652-66-9	2-(Trifluoromethyl)pyrido[3,4-b]pyrazine	334.65	
115665-69-5	1-[(1E)-2-Bromoethenyl]-3-methylbenzene		513.8
115665-77-5	1-Bromo-4-[(1E)-2-bromoethenyl]benzene	340.65	
115665-94-6	(3E)-4-(4-Acetylphenyl)-3-buten-2-one	376.15	
115666-43-8	1-(2,3-Dihydro-6-iodo-1H-indol-1-yl)ethanone	383.15	
115666-47-2	6-Iodo-1H-indole	343.65	
115666-48-3	6-Bromo-7-iodo-1H-indole	381.4	
115706-19-9	6,7-Dichloro-3,4-dihydro-1(2H)-isoquinolinone	456.65	
115706-49-5	3,5-Dioxohexanenitrile	296.15	
115713-07-0	2,4,5-Trihydroxy-1-methoxy-9H-xanthen-9-one	582.15	
115761-64-3	3-Phenyl-1-naphthalenamine	398.15	
115787-50-3	5-(2-Bromoacetyl)-2-hydroxybenzaldehyde	390.65	
1158-10-7	3,5-Diiodothyropropionic acid	509.65	
115822-62-3	2-(Chloromethyl)-4H-1-benzopyran-4-one	385.65	
115835-70-6	3-(2-Methylpropoxy)-2-pyridinamine	318.65	
115887-91-7	1-Azetidinesulfonic acid, 2-methyl-4-oxo-3-[[(phenylmethoxy)carbonyl]amino]-, sodium salt (1:1), (2S,3S)-	401.15	
115891-08-2	2-[[4-(Methylthio)phenyl]amino]-3-pyridinecarboxylic acid	472.15	
115891-10-6	2-[(2,4-Difluorophenyl)amino]-3-pyridinecarboxylic acid	458.65	
115893-43-1	2-Propanol, 1-(ethylamino)-2-methyl-, hydrochloride (1:1)	429.65	
1159-66-6	16-Oxoandrostenediol	476.65	
115929-59-4	2-Bromo-4-methoxy-6-nitrophenol	382.15	
115933-55-6	5,5′-[(5-Nitro-1,3-phenylene)diimino]bis[5-oxopentanoic acid]	468.15	
1159835-37-6	1-(1,1-Dimethylethyl) 4-(2-pyridinylamino)-1,4-piperidinedicarboxylate	394.15	
1159977-36-2	N-[4-Cyano-3-(trifluoromethyl)phenyl]-3-[(2-fluorophenyl)sulfonyl]-2-hydroxy-2-methylpropanamide	435.15	
1159977-42-0	Methyl 5-hydroxy-6-methoxy-2-[1-methyl-1-[[(phenylmethoxy)carbonyl]amino]ethyl]-4-pyrimidinecarboxylate	376.4	
116-30-3	Rhodoxanthin	492.15	
116-47-2	4-Amino-N-cyanobenzenesulfonamide	566.65	
116-50-7	1,2-Ethanediol, 1,2-dibenzenesulfonate	322.65	
116-69-8	3-Bromophthalic acid	450.65	
116016-57-0	5-(4-Hydroxyphenyl)-2-thiophenecarboxylic acid	527.65	
116026-95-0	1,1-Dimethylethyl N-(4-formyl-3-pyridinyl)carbamate	325.65	
116027-11-3	Methyl 2-[(aminocarbonyl)amino]-5-iodobenzoate	554.15	
116027-14-6	3,5-Dihydro-2-[[4-(1H-imidazol-1-yl)phenyl]amino]-4H-imidazol-4-one	554.15	
116035-52-0	N3,N3-Dimethyl-1,2,4-thiadiazole-3,5-diamine	434.15	
116047-27-9	7-Bromo-3,4-dihydro-2-(phenylmethylene)-1(2H)-naphthalenone	409.15	
1160556-63-7	2′-Bromo-N2,N2,N6,N6-tetramethyl[1,1′-biphenyl]-2,6-diamine	342.65	
116056-07-6	2,5,6,7-Tetrahydro-3H-pyrrolo[2,1-c]-1,2,4-triazol-3-one	423.65	
116064-76-7	1,2,3-Trimethoxydibenz[cd,f]indol-4(5H)-one	462.65	
116081-18-6	6-Bromo-2-methyloxazolo[5,4-b]pyridine	497.15	
116095-18-2	Butanoic acid, 3-methyl-, (2R,3S,6S,7R,8R)-3-[[3-(formylamino)-2-hydroxybenzoyl]amino]-8-hexyl-2,6-dimethyl-4,9-dioxo-1,5-dioxonan-7-yl ester	425.4	
116096-91-4	3,5-Dibromo-2,4-dihydroxybenzaldehyde	477.15	
116096-92-5	6-Bromo-7-hydroxy-2-oxo-2H-1-benzopyran-3-carboxylic acid	543.15	
1161009-89-7	4,4,5,5-Tetramethyl-2-(9,9′-spirobi[9H-fluoren]-4-yl)-1,3,2-dioxaborolane	496.15	
116143-28-3	1-(3,8-Diazabicyclo[3.2.1]oct-8-yl)-2,2,2-trifluoroethanone	497.15	
116163-30-5	Piperazine, 2-(fluoromethyl)-, hydrochloride (1:2)	505.15	
116163-74-7	Trichothec-9-ene-3,4,8,15-tetrol, 12,13-epoxy-, 4,15-diacetate 8-pentanoate, (3α,4β,8α)-	425.9	
116163-96-3	1,1′-(1,3-Propanediyl)bis[1,1-bis(2-methoxyphenyl)phosphine]	493.15	
116174-40-4	(1S,2S)-2-(Hydroxymethyl)cyclohexanecarboxamide	443.15	
116174-63-1	Alexine	433.65	
116182-44-6	Nonanoic acid, 9-[[4-[hexahydro-3,8-dihydroxy-2-(2-hydroxy-1-methylpropyl)-2H,5H-pyrano[4,3-b]pyran-7-yl]-3-methyl-1-oxo-2-butenyl]oxy]-, monosodium salt, [2R-[2α(1S*,2S*),3β,4aα,7β(E),8α,8aβ]]-	411.65	
116183-80-3	3-Pyrrolidinol, 1-(phenylmethyl)-, 3-(4-methylbenzenesulfonate), (3R)-	335.15	
116183-81-4	3-Pyrrolidinamine, hydrochloride (1:2), (3R)-	394.65	
116183-84-7	(1R)-2,5-Diazabicyclo[2.2.1]heptane	558.15	
1161880-89-2	2,2,2-Trifluoro-N-[2-(2-hydroxy-3,5-dinitrophenyl)ethyl]acetamide	407.65	
1162-56-7	Pregna-4,6-diene-3,20-dione	420.65	
116200-99-8	2-Bromo-N-2-thiazolylbutanamide	439.15	
116201-02-6	2-(2-Thiazolylamino)-4(5H)-thiazolone	465.15	
116228-41-2	4-Bromo-1-[(4-methylphenyl)sulfonyl]-1H-pyrazole	375.65	
116229-13-1	14,21-Cyclo-19-norpregna-1,3,5(10)-triene-3,17-diol	513.65	
116247-46-2	2,5-Dihydro-3-phenyl-5-(phenylmethylene)-1,2,4-triazin-6(1H)-one	448.65	
116249-66-2	Benanomicin B	495.65	
116256-35-0	(17α)-9,17-Dihydroxy-3-oxoandrost-4-ene-17-carbonitrile	502.65	
116289-67-9	2-Methoxy-5-phenoxybenzenamine	343.15	
116290-73-4	4-(1-Piperazinyl)benzamide	514.65	
116290-76-7	N-[4-[4-(Phenylmethyl)-1-piperazinyl]phenyl]acetamide	433.15	
116296-31-2	2-(Undecylthio)acetic acid	334.65	
116344-10-6	Pentanoic acid, 2-[(dimethylamino)methylene]-4,4-dimethyl-3-oxo-, ethyl ester	321.15	
116344-17-3	1-Phenyl-5-propyl-1H-pyrazole-4-carboxylic acid	385.15	
116344-18-4	5-(1-Methylethyl)-1-phenyl-1H-pyrazole-4-carboxylic acid	441.15	
116353-93-6	2-Methoxy-6H-indolo[3,2,1-de][1,5]naphthyridin-6-one	460.65	
116383-74-5	1H-Pyrrole-3,4-dicarboxylic acid, 2-methyl-5-(2-pyridinyl)-, diethyl ester	371.15	
116384-53-3	Diethyl P-[[2-(6-amino-9H-purin-9-yl)ethoxy]methyl]phosphonate	410.15	
116406-21-4	Methyl (2E)-3-(2,3,4-trimethoxyphenyl)-2-propenoate	327.65	
116409-32-6	8-Methyl-1-isoquinolinecarboxaldehyde	324.15	
116412-83-0	(4-Chlorophenyl)(3,4-dimethoxyphenyl)methanone	384.65	
116412-84-1	(3-Chlorophenyl)(3,4-dimethoxyphenyl)methanone	370.15	
116412-88-5	Methanone, (3,4-dimethoxyphenyl)(3-methylphenyl)-	372.65	
116433-49-9	2-Azido-N-(4-methylphenyl)acetamide	379.65	
116435-38-2	N-(Triphenylmethyl)glycine hydrazide	437.65	
116436-11-4	N-(2-Bromo-6-methylphenyl)acetamide	447.15	
116437-42-4	1,1-Dimethylethyl N-(5-oxo-5-phenylpentyl)carbamate	362.65	
116453-90-8	1,4-Dipropoxy-2,3-naphthalenedicarbonitrile	365.15	
116476-55-2	N1,N3-Bis(2,5-dichlorophenyl)-2-phenylpropanediamide	472.15	
116496-76-5	N-(2-Ethoxy-4-nitrophenyl)acetamide	437.65	
1165-40-8	Andrographin	463.65	
116503-97-0	3-(1,2-Dimethyl-2-propen-1-yl)-4-hydroxy-6-methyl-2H-pyran-2-one	408.65	