CAS	name	Tm	Tb
100-90-3	N4-Acetylsulfamethazine	513.9	
1000007-16-8	4-Bromo-3-(methylthio)quinoline	380.25	
100003-85-8	7-(Chloromethyl)-3-(4-chlorophenyl)-5H-thiazolo[3,2-a]pyrimidin-5-one	478.15	
1000341-18-3	3-Amino-5-cyanobenzoic acid	539.15	
10004-45-2	5-Ethyl-3(2H)-isoxazolone	318.65	
10004-46-3	5-Propyl-3(2H)-isoxazolone	314.4	
10004-48-5	5-Butyl-3(2H)-isoxazolone	312.15	
100041-05-2	Flazin	492.15	
100047-36-7	4-Aminopicolinic acid	538.15	
100047-44-7	1,4-Dihydropyrimido[5,4-d]pyrimidine	423.15	
100059-52-7	4,5-Diethoxy-2-mercaptobenzoic acid	475.65	
100060-09-1	3-Amino-1-ethyl-4(1H)-quinolinone	422.15	
100060-86-4	N-(1,3-Dihydro-3-oxo-1-isobenzofuranyl)-N′-ethylurea	499.15	
100061-24-3	4-Morpholinecarboxylic acid, 2-nitrophenyl ester	354.15	
1000623-98-2	3,6-Bis(5-bromothiophen-2-yl)-2,5-bis(2-hexyldecyl)pyrrolo[3,4-c]pyrrole-1,4(2H,5H)-dione	388.4	
100063-41-0	5-Methyl-2-phenyloxazole-4-carboxylic acid methyl ester	367.15	
100074-11-1	2,2′-(1,3-Butadiyne-1,4-diyl)bis[furan]	323.15	
10009-20-8	N6-(2,2,2-Trifluoroacetyl)-L-lysine	526.15	
1000932-32-0	4-Chloro-2-(1-methyl-4(1H)-pyridinylidene)-3-oxobutanenitrile	485.15	
1000932-44-4	3-(2,4-Dichloro-5-thiazolyl)-1-phenyl-2-propen-1-one	368.15	
100097-71-0	5-Mercapto-N-methyl-1H-1,2,3-triazole-4-carboxamide	494.4	
1001-20-3	Ethyl 2,6-dimethyl-8-oxo-2,4,6-octatrienoate	349.65	
1001057-06-2	2-Bromo-N,N-diethyl-5-nitrobenzenemethanamine	312.65	
100114-53-2	5-Chloro-1,2,3-benzenetriamine	388.15	
100114-58-7	4-Amino-2-pyridinemethanol	387.65	
100124-07-0	B-4-Phenoxathiinylboronic acid	430.05	
100130-06-1	2-(Acetylamino)-5-thiazolecarboxamide	599.4	
100132-04-5	2-[(2-Phenoxyethyl)amino]ethanol	307.4	
100134-82-5	Phenylmethyl N-(1-cyano-1-methylethyl)carbamate	370.15	
100144-91-0	3,5-Diethyldihydro-2H-pyran-2,6(3H)-dione	291.15	
10015-69-7	N-(2-Phenylethyl)hexadecanamide	356.5	
1001518-99-5	4-Nitro-1H-pyrazole-1-methanol	372.65	
1001519-38-5	4-Chloro-1-methyl-5-(trifluoromethyl)-1H-pyrazole-3-carboxylic acid	412.15	
10016-32-7	Carbonothioic acid	323.15	
1001620-76-3	1,6-Dihydro-6-oxo-1-(phenylmethyl)-4-pyridazinecarboxaldehyde	348.65	
100189-17-1	6-Methyl-3-pyridineethanol	311.15	
10019-60-0	Methyl 2-O-β-D-glucopyranosylbenzoate	392.65	
100198-09-2	Piscidinol A	468.15	
1002-58-0	1-Hexadecyl propanedioate	332.15	
1002-96-6	Cetoleic acid	306.5	
10023-30-0	Benzo[1,2-d:4,3-d′]bisthiazole, 2-acetamido-7-methyl-	592.15	
100245-35-0	5-(1,1-Dimethylethyl)-2-hydroxy-3-methoxybenzoic acid	470.65	
100256-91-5	2,6-Dimethyl-4-propoxybenzoic acid	366.65	
100278-51-1	Ethyl 4-[(4-methoxybenzoyl)amino]benzoate	448.15	
100289-17-6	1-(2-Amino-4-methyl-5-thiazolyl)-1-propanone	509.65	
100289-21-2	1-(2-Methylimidazo[1,2-a]pyrimidin-3-yl)ethanone	392.15	
1003-32-3	5-Thiazolecarboxaldehyde	502.15	
1003-35-6	5-Amino-1,2-dihydro-3H-1,2,4-triazol-3-one	561.15	
1003-61-8	2-Amino-5-thiazolecarboxaldehyde	446.65	
1003-92-5	Dihydro-3-methyl-2H-1,3-thiazine-2,4(3H)-dione	322.65	
10030-85-0	L-Rhamnose monohydrate	368.15	
1003043-76-2	6-Bromo-4-chloro-2-(methylthio)quinazoline	397.15	
100306-41-0	2,4-Dimethyl-6-(1-methylethyl)-1,3,5-benzenetriol	383.15	
100317-21-3	N-(Phenylmethyl)-1-piperidinesulfonamide	373.65	
100327-50-2	2-[2-(1H-1,2,4-Triazol-1-yl)ethyl]-1H-isoindole-1,3(2H)-dione	440.65	
100331-91-7	5-(2,2-Dihydroxyacetyl)-8-(phenylmethoxy)-2(1H)-quinolinone	412.65	
10035-38-8	5-Formyl-2-benzofurancarboxylic acid	533.15	
10035-62-8	Biliverdin dimethyl ester	486.15	
100361-18-0	7-Chloro-1-cyclopropyl-6-fluoro-1,4-dihydro-4-oxo-1,8-naphthyridine-3-carboxylic acid	483.65	
100366-75-4	2-Iodo-5-(trifluoromethyl)pyridine	355.65	
100366-87-8	α-(1,1-Dimethylethyl)benzeneacetamide	393.65	
100367-41-7	8-Chloro-N-methyl-9H-purin-6-amine	573.15	
100367-51-9	5-Amino-2-bromobenzenesulfonamide	422.15	
100367-75-7	Pyridine, 2-bromo-6-methyl-, 1-oxide, hydrochloride (1:1)	276.2425	
100367-79-1	N-(6-Chloro-2,3-dihydro-3-oxo-4-pyridazinyl)acetamide	528.65	
100374-81-0	4-Bromo-N-(4-chlorophenyl)-N-methylbenzenesulfonamide	390.55	
100377-22-8	2-[(4-Aminophenyl)thio]acetamide	385.65	
100383-05-9	4-Pyridinecarboxamide, 2-methyl-, 1-oxide	484.65	
10039-34-6	Carbamodithioic acid, N,N′-1,2-ethanediylbis-, potassium salt (1:2)	518.65	
10039-67-5	2,3-Dimethyl 4-phenyl-2,3-quinolinedicarboxylate	402.65	
100393-21-3	N-[(5-Ethoxy-2-furanyl)methylene]benzenamine	366.15	
1004-15-5	Hydrazine, (tetrahydro-1,1-dioxido-3-thienyl)-, hydrochloride (1:1)	459.15	
1004-16-6	Pyridinium, 3-cyano-1-methyl-, iodide (1:1)	468.45	
10040-98-9	4-(1H-Imidazol-1-yl)benzaldehyde	412.65	
10041-05-1	2-[1-[4-(1H-Imidazol-1-yl)phenyl]ethylidene]hydrazinecarboxamide	513.65	
100418-33-5	2-[(4-Methyl-2-nitrophenyl)amino]ethanol	355.65	
100418-48-2	1-Butanol, 2-[(4-chloro-2-nitrophenyl)amino]-, 1-methanesulfonate	365.15	
100446-36-4	2-[(1E)-2-Nitroethenyl]pyridine	346.15	
100446-37-5	4-[(1E)-2-Nitroethenyl]pyridine	383.15	
10045-66-6	4,5-Diiodo-2-phenyl-1H-imidazole	467.65	
10045-71-3	3-Methyl-5-methylene-2,4-imidazolidinedione	415.15	
1004769-34-9	(1S,5S,9E,11R,14S)-14-Hydroxy-5-methyl-4,15-dioxabicyclo[9.3.1]pentadec-9-en-3-one	356.15	
1004769-38-3	(1S,5S,9E,11S,14S)-14-Hydroxy-5-methyl-4,15-dioxabicyclo[9.3.1]pentadeca-9,12-dien-3-one	388.9	
100487-74-9	6-Chloro-5-fluoro-1,3-dihydro-2H-indol-2-one	474.15	
10049-61-3	Cyclohexanamine, 2-methyl-, hydrochloride (1:1)	553.15	
100491-30-3	Ethyl 7-chloro-6-fluoro-1-(4-fluorophenyl)-1,4-dihydro-4-oxo-1,8-naphthyridine-3-carboxylate	504.15	
100492-04-4	7-Chloro-1-(2,4-difluorophenyl)-6-fluoro-1,4-dihydro-4-oxo-1,8-naphthyridine-3-carboxylic acid	516.15	
100499-64-7	N-(5-Methyl-4-isoxazolyl)propanamide	332.15	
100499-66-9	4-Isoxazolamine, 5-methyl-, hydrochloride (1:1)	462.65	
1005-05-6	2-Mercapto-1-(1-piperidinyl)ethanone	329.65	
1005-25-0	1-(2-Methyl-4-pyrimidinyl)methanediol	339.15	
1005-40-9	1-(Ethenyloxy)-3-methylbenzene		446.9
1005-62-5	1-(Ethenyloxy)-4-methylbenzene	366.65	451.65
1005-94-3	7-Oxaspiro[3.5]nonane-6,8-dione	321.15	
10050-12-1	5-Amino-2-(4-chlorophenyl)-2,4-dihydro-3H-pyrazol-3-one	442.15	
100501-60-8	1,3-Diethyl 2-[[(2,3,4-trifluorophenyl)amino]methylene]propanedioate	367.65	
100510-33-6	Adibendan	559.65	
100510-66-5	6′-Aminospiro[cyclopentane-1,3′-[3H]indol]-2′(1′H)-one	440.65	
100516-72-1	1H-Pyrrole-3-carbonyl azide	378.15	
100516-78-7	4-Pyridinesulfonic acid, hydrazide	368.65	
100516-88-9	6-Quinolinemethanol	353.15	
1005205-27-5	5-(1H-Indazol-5-yl)-1,3,4-oxadiazole-2(3H)-thione	556.65	
100523-84-0	5-Bromo-3-thiophenecarboxylic acid	390.65	
100524-26-3	Hydrazinecarboximidamide, N-nitro-2-phenyl-	437.15	
1005402-20-9	6-(4-Hydroxyphenyl)-2-methyl-3(2H)-pyridazinone	516.65	
1005494-37-0	2-[[[4-Methoxy-3-[[(4-methylphenyl)sulfonyl]oxy]phenyl]methyl]sulfonyl]acetic acid	417.15	
1005500-76-4	N,4-Dimethyl-N-1-propyn-1-ylbenzenesulfonamide	372.65	
10056-19-6	N-(1-Methylethyl)-3,5-dinitrobenzamide	449.65	
10056-70-9	Glutamine, 4-fluoro-	419.15	
100587-64-2	5-Hydroxy-1H-indole-2-sulfonamide	493.65	
1006-02-6	1,3,3,4,5,5-Hexafluorocyclopentene		339.15
1006-08-2	1,7-Dihydro-7-methyl-6H-purin-6-one	629.65	
1006-24-2	3-Ethyl-6-methyl-2,4(1H,3H)-pyrimidinedione	470.65	
1006-29-7	1H-Indazole-1-methanol	388.15	
1006-50-4	5-Iodoquinoline	372.65	
1006-51-5	2,3,4,6,7,8-Hexahydro-5(1H)-quinolinone	398.65	
1006037-04-2	Benzoic acid, 4-(1-aminocyclopropyl)-, methyl ester, methanesulfonate (1:1)	503.1	
1006062-27-6	[2-Butyl-4-chloro-1-[[2′-(2H-tetrazol-5-yl)[1,1′-biphenyl]-4-yl]methyl]-1H-imidazol-5-yl]methyl acetate	434.15	
1006062-28-7	5-[4′-[[2-Butyl-4-chloro-5-[(triphenylmethoxy)methyl]-1H-imidazol-1-yl]methyl][1,1′-biphenyl]-2-yl]-2H-tetrazole	444.15	
100616-10-2	Ethyl 3-cyano-1,2-dihydro-6-(2-methylpropyl)-2-oxo-4-pyridinecarboxylate	426.15	
10062-39-2	(5aR,5bS,7aR,8R,10aS,10bS)-8-[(1R)-1,5-Dimethylhexyl]-4,5,5a,5b,6,7,7a,8,9,10,10a,10b,11,12-tetradecahydro-5a,7a-dimethylcyclopenta[5,6]naphth[1,2-d]azepin-2(3H)-one	525.15	
10065-79-9	C,C′-Bis(phenylmethyl) N,N′-carbonimidoylbis[carbamate]	421.65	
10066-11-2	1-Hydroxy-6-methoxy-2-methyl-1H-benzimidazole	486.15	
10066-20-3	1H-Benzimidazole, 1-hydroxy-2-phenyl-, 3-oxide	497.15	
1006619-83-5	2-Amino-5-chloro-3-methylbenzamide	442.15	
100665-43-8	Ganoderenic acid d	492.15	
1006694-45-6	(2E)-2-Cyano-3-phenyl-N-2-thiazolyl-2-propenamide	462.65	
10068-67-4	Carbamic acid, [(1S)-1-[[4-(1,1-dimethylethoxy)phenyl]methyl]-2-[(2,5-dioxo-1-pyrrolidinyl)oxy]-2-oxoethyl]-, phenylmethyl ester	391.15	
1007-18-7	1,6-Dihydro-N-methyl-6-oxo-3-pyridinecarboxamide	527.65	
10070-48-1	Lup-20(29)-ene-3,16-diol, (3β,16β)-	491.65	
100704-38-9	4-(Methylsulfonyl)-2-thiophenecarboxylic acid	469.15	
100704-39-0	4,5-Dihydro-2,3-furandicarboxylic acid	471.15	
1007105-57-8	(3Z)-3-Bromo-1,1,1-trifluoro-4-(4-methoxyphenyl)-3-buten-2-one	318.15	415.65
1007107-52-9	2,3-Dibromo-7,8-dihydro-7,7-dimethyl-5(6H)-quinolinone	396.15	
10075-51-1	1-Benzyl-5-bromoindole	367.15	
10075-52-2	5-Bromo-1-methyl-1H-indole	315.65	
10075-63-5	1,5-Dimethoxynaphthalene	456.65	
10075-66-8	1,8-Dimethoxynaphthalene	323.15	
10075-76-0	2,3-Bis(methylthio)naphthalene	358.15	
100751-65-3	2-Bromo-6-[[(1,1-dimethylethyl)dimethylsilyl]oxy]naphthalene	336.15	
100784-27-8	Methyl 5-(aminosulfonyl)-3-chloro-1-methyl-1H-pyrazole-4-carboxylate	398.65	
100791-01-3	1,3-Dihydro-4-propyl-2H-imidazol-2-one	467.15	
1008-30-6	2,4-Dihydro-4-phenyl-3H-1,2,4-triazol-3-one	459.15	
1008-50-0	4,5,6,7-Tetrahydro-1,2-benzisoxazole-3-carboxamide	433.15	
100829-68-3	Hydrazine, 1,1′-(sulfonyldi-4,1-phenylene)bis-, dihydrochloride	536.65	
1008361-76-9	6-Chloro-9-(triphenylmethyl)-9H-purine	476.15	
100840-64-0	1-Propanamine, 3-(4-nitrophenoxy)-, hydrochloride (1:1)	428.15	
1008428-33-8	3-(2-Furanyl)-1H-pyrazole-4-carbonitrile	426.15	
100848-70-2	2-Methoxy-4-methylpyridine	409.15	
100865-38-1	Methyl 2-(benzoylamino)-5-chlorobenzoate	413.15	
100868-46-0	3,5-Dichloro-4-methylpyridine	322.15	
100869-87-2	5,6,7,8-Tetrahydro-2-phenylquinazoline	324.15	
10087-65-7	2-(3,4-Dihydro-2H-pyrrol-5-yl)-1H-pyrrole	435.65	
100874-09-7	4-Bromo-N-ethyl-1,8-naphthalimide	436.15	
10088-45-6	Methyl hydrogen P-phenylphosphonate	364.15	
10090-27-4	2-(4,5-Dihydro-2-thiazolyl)-1H-benzimidazole	566.15	
10091-01-7	Pachyrrhizin	480.15	
10091-84-6	3-(3-Methyl-2-buten-1-yl)-3H-purin-6-amine	501.65	
100910-67-6	1-Amino-1,3-cyclopentanedicarboxylic acid	537.15	
100910-69-8	2-Propyl-4-pyrimidinamine	351.65	
100914-36-1	6-Nitro-2-(3-nitrophenyl)-4H-1-benzopyran-4-one	561.65	
10092-04-3	Isotenulin	433.15	
1009306-56-2	Quinoline, 3-chloro-2-(chloromethyl)-4-phenyl-, hydrochloride (1:1)	416.65	
1009330-44-2	2-Pyridinemethanol, α-(aminomethyl)-, hydrochloride (1:1)	462.15	
100940-00-9	Methanone, (3-chlorophenyl)-1-piperazinyl-, hydrochloride (1:1)	503.15	
100948-83-2	1,3-Dichloro-5-methoxy-2-nitrobenzene	329.15	
100948-84-3	1,2-Dichloro-4-methoxy-5-nitrobenzene	341.65	
100948-85-4	2-Amino-4-chloro-5-nitrobenzoic acid	508.15	
100949-33-5	4,6-Dichloro-8-iodoquinazoline	499.15	
100958-69-8	3-Methyl-1H-pyrrole-2,5-dicarboxylic acid	512.65	
100959-22-6	Methyl 2-bromo-4-nitrobenzoate	356.65	
100959-30-6	4-(Hydroxymethyl)benzaldehyde oxime	393.65	
100959-52-2	4-Chloro-1H-indazol-7-amine	477.15	
100960-03-0	1,2-Dihydro-2-oxo-3-pyridineacetic acid	513.65	
100960-08-5	1H-Pyrrolo[2,3-b]pyridin-3-amine, hydrochloride (1:2)	526.15	
10097-11-7	N,N′-(Methylenedi-4,1-phenylene)bis[glycine]	405.65	
1009735-23-2	Methyl 2-bromo-6-methoxy-3-pyridinecarboxylate	327.65	
100986-86-5	(+)-Ofloxacin	458.15	
1010-50-0	2,3,4,7-Tetramethylbenzothiophene	340.65	
1010-54-4	2,4-Dihydro-5-methyl-4-phenyl-3H-1,2,4-triazol-3-one	429.15	
1010-55-5	4-Pteridinamine, 7-methyl-, 5-oxide	523.65	
1010-93-1	2-Methyl-5-nitroimidazole-1-acetic acid	450.15	
101018-98-8	(4-Chlorophenyl)(2,3-dihydro-1,4-benzodioxin-6-yl)methanone	380.65	
101023-55-6	1H-Imidazole, hydrobromide (1:1)	486.15	
101023-58-9	1H-Imidazole, 1-methyl-, hydrobromide (1:1)	306.15	
10103-90-9	2-Quinoxalinemethanol, 3-methyl-, 2-acetate, 1,4-dioxide	390.65	
1010396-29-8	(2S)-3-(4-Chloro-3-fluorophenoxy)-N-[4-cyano-3-(trifluoromethyl)phenyl]-2-hydroxy-2-methylpropanamide	393.15	
101071-97-0	8-Bromo-3,7-dihydro-3-methyl-7-propyl-1H-purine-2,6-dione	462.65	
101071-99-2	8-Bromo-3,7-dihydro-3-methyl-7-(2-phenylethyl)-1H-purine-2,6-dione	520.15	
101072-02-0	8-Bromo-3,7-dihydro-3-methyl-7-(2-oxobutyl)-1H-purine-2,6-dione	524.15	
101079-63-4	2,6-Dichloro-3,4-pyridinediamine	455.15	
101079-67-8	3-Chloro-2,6-dinitropyridine	370.15	
101079-68-9	3,5-Dichloro-2-furancarboxaldehyde	285.15	
10108-12-0	N1,N6-Didodecylhexanediamide	413.15	
101080-36-8	Benzoic acid, 2-amino-3-bromo-5-chloro-, methyl ester	349.4	
101080-64-2	2-[(3,4-Dichlorophenyl)sulfonyl]ethanol	354.65	
10109-66-7	Estra-5(10),9(11)-dien-17-ol, 3,3-dimethoxy-17-(2-propen-1-yl)-, (17β)-	411.15	
10109-76-9	3,3-Dimethoxyestra-5(10),9(11)-dien-17-one	385.15	
1011-20-7	6,8-Dichloro-3,4-dihydro-2H-1,3-benzoxazin-2-one	530.65	
1011-28-5	α-2-Thiazolyl-3-pyridinemethanol	348.9	
1011-38-7	4,5-Dihydro-3-phenyl-5-isoxazolecarbonitrile	339.65	338.15
1011-40-1	2-Phenyl-5-thiazolecarboxaldehyde	367.65	
1011-42-3	1,2,3,4-Tetrahydro-6-methoxy-7-isoquinolinol	471.15	
1011-43-4	1,2,3,4-Tetrahydro-7-methoxy-6-isoquinolinol	504.65	
1011-46-7	6-Phenyl-4,5-dihydro-3(2H)-pyridazinone	422.65	
1011-47-8	2-Acetylquinoline	325.15	
1011-49-0	2-Ethoxy-1-methyl-1H-indole	352.15	
1011-93-4	N-Phenyl-3-pyridazinamine	425.15	
10113-35-6	N-(2,6-Dichlorophenyl)formamide	449.65	
10113-37-8	N-(2-Chloro-6-methylphenyl)formamide	436.65	
10114-51-9	Benzamide, N,N′-(9,10-dihydro-9,10-dioxo-1,8-anthracenediyl)bis-	590.15	
101140-06-1	Biapigenin	532.15	
101167-02-6	N-[[4-(Aminosulfonyl)phenyl]methyl]-2-chloroacetamide	442.4	
101171-43-1	7-Oxotridecanedioic acid	307.65	
1011711-58-2	4-Propoxy-1H-pyrrolo[2,3-b]pyridine	463.15	
10118-56-6	Cascarillin	478.15	
101184-09-2	2,3-Dihydro-5-methyl-2-oxo-1H-imidazole-4-carboxylic acid	493.65	
101184-11-6	4-(2-Methyl-1H-imidazol-1-yl)benzoic acid	575.65	
1012-96-0	6-Amino-7H-purine-7-propanol	520.65	
101234-76-8	4,5,6,7-Tetrahydro-4-thioxo-1H-cyclopenta[b]pyridine-1-acetic acid	421.9	
10125-11-8	Cyclo(L-tyrosyl-L-tyrosine)	550.15	
101252-53-3	4-(Aminomethyl)-N-methylbenzenesulfonamide	371.65	
101257-34-5	P-2-Pyrimidinylphosphonic acid	480.65	
101257-37-8	5-Thiazolecarboxylic acid, hydrazide	431.15	
101257-84-5	1-Methyl-4-nitro-1H-imidazole-5-sulfonyl chloride	379.65	
101258-10-0	2-Methyl-6,7-benzothiazolediamine	457.15	
101267-05-4	1-[4-(Methylthio)phenyl]-1-hexanone	335.15	
10128-72-0	4-Pyridinecarboxylic acid, 3-hydroxy-, methyl ester	352.65	
10128-73-1	3-Hydroxy-4-pyridinecarboxamide	474.15	
1012836-59-7	6,11-Dibromodibenzo[f,h]quinoxaline	450.65	
10129-58-5	Pyridinium, 3-(ethoxycarbonyl)-1-methyl-, iodide (1:1)	323.9	
1013-69-0	Noreugenin	552.15	
1013-77-0	Piperazine, 1-(2,4-dimethylphenyl)-, hydrochloride (1:1)	509.15	
101301-18-2	3,4-Dihydro-1-oxo-2(1H)-isoquinolineacetic acid	460.15	
101306-11-0	2,3′:4′,2′′-Terthiophene	337.15	
10131-47-2	Pyridine, 2-methyl-6-(phenylmethyl)-, compd. with 2,4,6-trinitrophenol (1:1)	419.65	
10132-02-2	4-Phenyl-1-phthalazinecarbonitrile	454.15	
101327-86-0	6-Nitro-5-quinolinecarboxaldehyde	426.15	
10133-20-7	2-(Bromomethyl)benzo[b]thiophene	319.95	
10133-22-9	5-(Bromomethyl)benzo[b]thiophene	370.15	
10133-33-2	2-Nitrobenzo[b]thiophene	461.65	
10133-35-4	2-Nitrobenzo[b]thiophene-3-ol	377.65	
10133-88-7	1,3-Dihydro-5-nitro-1,3-dioxo-2H-isoindole-2-acetic acid	428.15	
1013333-23-7	3-Piperidinol, 4-(aminomethyl)-, hydrochloride (1:2), (3R,4R)-rel-	510.15	
101337-93-3	2-Amino-7-chloro-6-fluorobenzothiazole	463.65	
10134-98-2	Benzo[b]thiophene-7-carboxylic acid	444.65	
10134-99-3	3-Bromobenzo[b]thiophene-4-carboxaldehyde	413.15	
1013405-25-8	9,9′-(3,5-Pyridinediyldi-3,1-phenylene)bis[9H-carbazole]	510.15	
101345-67-9	2-Methoxy-N-phenyl-N-[1-(2-phenylethyl)-4-piperidinyl]acetamide	369.65	
101349-84-2	4-[(Chloromethyl)sulfonyl]benzoic acid	506.15	
10135-02-1	3-Bromobenzo[b]thiophene-6-carboxaldehyde	374.65	
10135-23-6	1-(2-Phenylethyl)-2-pyrrolidinone	323.15	
101376-26-5	(3R)-4-(Phenylmethyl)-3-morpholinemethanol	502.65	
101384-63-8	5-Bromo-1,2-dihydro-2-oxo-1-(phenylmethyl)-3-pyridinecarboxylic acid	507.15	
10139-61-4	3,3-Bis(phenylmethyl)-1(3H)-isobenzofuranone	478.15	
101398-04-3	N-(4-Ethylphenyl)-4-fluorobenzamide	452.15	
101398-06-5	4-Fluoro-N-[4-(1-methylethyl)phenyl]benzamide	483.65	
101398-10-1	N-(3-Chlorophenyl)-4-fluorobenzamide	398.65	
1014-06-8	Piperazine, 1-(3,4-dimethylphenyl)-, hydrochloride (1:1)	446.15	
1014-15-9	2-Oxo-2H-1-benzothiopyran-3-carboxamide	518.65	
1014-18-2	2-Bromo-1-(2,3-dihydro-1,4-benzodioxin-2-yl)ethanone	353.65	
1014-83-1	cis-Ferulic acid	382.65	
10141-50-1	Benzenamine, 4-ethoxy-, sulfate (1:1)	507.15	
101420-64-8	5-Methyl-7-nitro-1H-benzimidazole	562.65	
101420-66-0	1H-Indazole, 3-methyl-7-nitro-	474.15	
101420-67-1	4-Methyl-5-nitro-1H-indazole	525.15	
101421-71-0	5-Quinazolinamine	466.15	
101421-72-1	6-Quinazolinamine	486.9	
101421-74-3	8-Quinazolinamine	423.4	
101421-78-7	5-(Aminocarbonyl)-2-hydroxybenzoic acid	548.15	
101469-92-5	1-Pyrrolidinecarboxylic acid, 3-hydroxy-, 1,1-dimethylethyl ester, (3S)-	333.65	
10147-53-2	(4α,5α,17β)-17-Hydroxy-4-methylandrostan-3-one	475.15	
101470-79-5	(1R,4aR,6S,8aS)-1,4,4a,5,6,7,8,8a-Octahydro-6-hydroxy-5,5,8a-trimethyl-1,2-naphthalenedimethanol	437.65	
10148-69-3	(3R)-3-Hydroxy-L-norleucine	499.65	
10148-70-6	(3S)-3-Hydroxy-L-leucine	527.15	
101494-83-1	3-Bromobenzo[b]thiophene-5-ol	408.15	
101494-94-4	8-Chloro-1(2H)-phthalazinone	471.65	
101494-95-5	8-Chloro-4(3H)-quinazolinone	572.65	
1015082-78-6	Borate(1-), trifluoro[4-(hydroxymethyl)phenyl]-, potassium (1:1), (T-4)-	484.15	
1015082-79-7	Borate(1-), trifluoro[2-(2-hydroxyethyl)phenyl]-, potassium (1:1), (T-4)-	530.15	
1015082-80-0	Borate(1-), trifluoro[3-(2-hydroxyethyl)phenyl]-, potassium (1:1), (T-4)-	409.15	
1015082-81-1	Borate(1-), trifluoro[4-(2-hydroxyethyl)phenyl]-, potassium (1:1), (T-4)-	467.15	
10151-74-3	(Trimethylsilyl)cyclohexane	174.65	
1015479-09-0	5-Fluoro-8-methyl-2-(propylamino)-4(3H)-quinazolinone	567.15	
1015480-88-2	3,6-Dimethoxy-4-(5-nitro-2-pyridinyl)pyridazine	418.3	
1015480-95-1	3-Methoxy-6-phenyl-4-(4,4,5,5-tetramethyl-1,3,2-dioxaborolan-2-yl)pyridazine	425.35	
1015484-23-7	Borate(1-), [(cyclohexylmethylamino)methyl]trifluoro-, potassium (1:1), (T-4)-	378.65	
10156-37-3	2-Mercapto-N-1-naphthalenylacetamide	400.9	
101568-44-9	N-[4-[(2-Propen-1-ylamino)sulfonyl]phenyl]acetamide	427.15	
101580-70-5	1,2-Dibromo-4-methyl-5-nitrobenzene	364.15	
1016-41-7	5-Ethoxy-3-methyl-1-phenyl-1H-pyrazole	314.15	
1016-42-8	8-(Acetyloxy)-2H-cyclohepta[b]furan-2-one	424.65	
1016-53-1	6,7,8,9-Tetrahydro-3-methoxy-5H-benzocycloheptene-2,9-diol	372.65	
1016-59-7	1-Methylphenazine	381.15	
10162-99-9	(2β,3β,5β)-2,3,14-Trihydroxypregn-7-ene-6,20-dione	445.65	
101623-69-2	Carbonic acid, 1-chloroethyl 4-nitrophenyl ester	344.5	
1016230-30-0	1-Butyl-1,2-dihydro-3H-pyrazolo[3,4-b]pyridin-3-one	371.15	
10163-84-5	Androst-5-en-3-ol, 17-(5-isoxazolyl)-, (3β,17β)-	473.15	
101655-92-9	Cinchonan-9-ol, 6′-methoxy-, 1,1′-dioxide, (8α,9R)-	451.65	
10166-40-2	2-[(2-Iodophenyl)amino]benzoic acid	472.65	
101667-98-5	Thieno[2,3-d]pyrimidine-6-carboxylic acid, 4-chloro-5-methyl-, ethyl ester	387.65	
101667-99-6	Thieno[2,3-d]pyrimidine-6-carboxylic acid, 4-methoxy-5-methyl-, ethyl ester	410.65	
101682-70-6	3-(4-Morpholinyl)-4-nitrobenzaldehyde	357.15	
1017-58-9	5,5′-Thiobis[2-furancarboxaldehyde]	405.15	
1017-74-9	Mercury, phenyl(phenylethynyl)-	350.65	
1017-79-4	2-Butanone, 2-(4-nitrophenyl)hydrazone	397.15	
1017-89-6	Trichlorodiphenylphosphorane	463.15	
10171-61-6	Ichangin	471.65	
10172-73-3	3,3′-[(2-Methoxyphenyl)methylene]bis[4-hydroxy-2H-1-benzopyran-2-one]	487.65	
10172-75-5	3,3′-[(4-Methoxyphenyl)methylene]bis(4-hydroxy-2H-chromen-2-one)	515.15	
1017238-97-9	2,3,4,13-Tetrahydro-3,3-dimethyl-13-(4-nitrophenyl)-1H-indazolo[1,2-b]phthalazine-1,6,11-trione	497.15	
101724-23-6	3-Chloro-2-furancarboxaldehyde	301.15	
10173-01-0	Jaceidin	403.15	