CAS	name	Tm	Tb
17587-22-3	6,6,7,7,8,8,8-Heptafluoro-2,2-dimethyl-3,5-octanedione	311.15	319.65
1759-05-3	1,1′-Sulfonylbis[4-chloro-3-nitrobenzene]	475.15	
1759-53-1	Cyclopropanecarboxylic acid	291.65	456.15
1759-58-6	trans-1,3-Dimethylcyclopentane	139.15	364.85
1759-60-0	1,3,3,4,4,5,5-Heptafluoro-2-methoxycyclopentene		377.15
1759-64-4	2,3-Dimethyl-1-cyclohexene		403.15
1759-68-8	N-Cyclohexylbenzamide	419.65	
17590-01-1	Amphetaminil	359.15	
17598-02-6	Precocene I	319.65	341.15
17599-81-4	Cuprous sulfate	673.15	
1760-71-0	4-Chloro-2-methyl-6-nitrophenol	380.15	
17600-72-5	1-Ethoxy-2-methoxybenzene		481.15
17601-94-4	2-Amino-3-bromo-5-nitrobenzonitrile	464.15	
17605-67-3	Fucosterol	397.15	498.15
17605-71-9	α-[1-(Dimethylamino)ethyl]benzenemethanol	336.9	
17606-31-4	Bensultap	356.65	
17606-72-3	Maltulose	474.15	
17608-07-0	4-Methylpentyl isothiocyanate		481.65
17608-41-2	Cholestan-3β-ol	414.65	
17608-59-2	α-[1-(Methylnitrosoamino)ethyl]benzenemethanol	362.85	
17609-47-1	L-Valine, ethyl ester, hydrochloride	376.15	
17609-48-2	Benzeneacetic acid, α-amino-, ethyl ester, hydrochloride (1:1), (αR)-	462.65	
17609-52-8	Benzyloxycarbonyl-D-phenylglycine	400.65	
17609-80-2	4-Amino-3-chlorophenol	432.65	
1761-56-4	N-Salicylidene-o-aminophenol	458.15	
1761-61-1	5-Bromosalicylaldehyde	378.15	
1761-71-3	4,4′-Diaminodicyclohexylmethane	288.15	593.15
17610-24-1	7-Acetyl-1,1,4,4,6-pentamethyltetralin	335.9	
17611-82-4	2-Ethylbutanedinitrile	232.15	537.15
17612-91-8	Ethanethioic acid, S-(2-aminoethyl) ester, hydrochloride (1:1)	419.65	
17615-73-5	5-Amino-2-[(4-aminophenyl)sulfonyl]benzenesulfonamide	511.15	
17616-03-4	N-Dodecylmaleimide	329.65	
17617-23-1	Flurazepam	352.65	
17617-60-6	N-Desalkyl-3-hydroxyflurazepam	447.15	
17618-76-7	2-Methyl-3-heptene	165.65	385.15
17619-97-5	Stilbene oxide	342.65	
176199-48-7	(+)-2-Aminobicyclo[3.1.0]hexane-2,6-dicarboxylic acid	543.65	
1762-34-1	5,5′-Dimethyl-2,2′-bipyridine	387.9	
1762-50-1	1′-(Phenylmethyl)[1,4′-bipiperidine]-4′-carboxamide	411.9	
1762-95-4	Ammonium thiocyanate	422.75	313.15
17624-07-6	6-Mercaptonicotinic acid	547.15	
17625-83-1	N-(4-Aminophenyl)benzamide	402.15	
17627-76-8	cis-Isosafrole	251.25	
17627-77-9	(1S)-1,2,3,4-Tetrahydro-6,7-dimethoxy-1-methyl-8-isoquinolinol	433.65	
1763-21-9	3,3,4,4-Tetrafluoro-1,5-hexadiene		345.65
17630-08-9	Hexadecanoic acid, 3-hydroxy-2,2-bis(hydroxymethyl)propyl ester	333.15	
17630-76-1	5-Chloroisatin	480.15	
17635-21-1	2,3,6-Trimethylquinoxaline	366.15	
17637-11-5	3,4-Bis(benzoyloxy)dihydro-2,5-furandione	446.15	
17639-64-4	1-Tosylpyrrole	407.15	
17639-93-9	Methyl 2-chloropropionate		405.65
1764-85-8	Epitizide	479.65	
17640-15-2	Methyl cyanoformate	458.65	369.65
17641-08-6	2-Chloro-N-(3-methoxyphenyl)acetamide	364.15	
17641-09-7	2-Iodo-N-(3-methoxyphenyl)acetamide	362.65	
17647-70-0	3-Amino-4-methylfurazan	346.45	
17648-03-2	Leucoquinizarin	428.65	
1765-26-0	2,2-Bis(trifluoromethyl)-1,3-dioxolane		372.65
1765-40-8	Pentafluorobenzyl bromide	361.15	447.65
1765-93-1	(4-Fluorophenyl)boronic acid	562.65	
17650-86-1	Amicetin	440.15	
17653-76-8	(SP-4-1)-Bis(4,6-nonanedionato-κO4,κO6)copper	435.15	
17654-68-1	4-Chloro-1,2-benzenedicarbonitrile	404.15	
17654-88-5	Bismuthiol II	523.15	
17655-31-1	Amide anion	482.65	
1766-76-3	Bis(pentafluorophenyl)methanol	352.65	
17660-58-1	1,4-Diethyl 2,3-dimercaptobutanedioate	334.65	
17661-50-6	Myristyl stearate	323.25	
17665-72-4	3,3-Bis[4-(dimethylamino)phenyl]-2-propenal	444.65	
17671-27-1	Behenyl behenate	348.15	
17672-21-8	Benzoic acid, 2-amino-3-hydroxy-, methyl ester	366.15	
17672-53-6	Phosphorochloridic acid, bis(2,2,2-trichloroethyl) ester	321.65	
17672-88-7	Isoapiole	329.65	
17673-25-5	Phorbol	523.65	
17673-49-3	Stearyl oleate	301.65	
17673-50-6	Oleyl stearate	303.65	
17675-60-4	Urea, N-(aminoiminomethyl)-, phosphate (1:?)	459.65	
17677-15-5	1-Chloro-3-(dodecyloxy)-2-propanol		467.15
1768-31-6	1,1,1,3,3-Pentachloro-2-propanone	275.25	
1768-34-9	Cyanic acid, methyl ester		316.65
1768-59-8	N,2-Diphenylhydrazinecarbothioamide	449.15	
17680-84-1	Homoplantaginin	492.65	
17682-70-1	Diacetone L-sorbose	350.65	
17682-71-2	2,3-O-(1-Methylethylidene)-α-L-sorbofuranose	354.65	
17685-05-1	Phenol glucuronide	433.65	
17685-52-8	Iron, di-μ-carbonyldecacarbonyltri-, triangulo	383.15	
17687-74-0	Tricyclohexylmethanol	344.65	
17688-68-5	Thiomorpholine, 4-phenyl-, 1,1-dioxide	395.15	
17689-42-8	1,2-Benzenedicarboxylic acid, 1-(2-hydroxyethyl) ester	388.45	
17689-77-9	Ethyltriacetoxysilane	281.15	380.65
1769-24-0	2-Methyl-4(3H)-quinazolinone	449.65	
1769-25-1	2,3-Dimethyl-4(3H)-quinazolinone	384.15	
1769-41-1	2-(Hydroxyimino)-N-phenylacetamide	448.15	
1769-52-4	2,3-Dihydro-1H-phosphole		348.15
17692-24-9	Bisoxatin	557.15	
17692-31-8	(±)-Dropropizine	378.15	
17692-34-1	Etodroxizine		523.15
17692-39-6	Fomocaine	325.65	512.15
17692-44-3	2-Hydroxy-2-[[5-hydroxy-4-(hydroxymethyl)-6-methyl-3-pyridinyl]methoxy]acetic acid	440.15	
17692-51-2	Metergoline	420.65	
17694-68-7	Ethanone, 2-bromo-1-(3-pyridinyl)-, hydrobromide (1:1)	471.15	
17695-32-8	Quinolinium, 1-ethyl-2-[7-(1-ethyl-2(1H)-quinolinylidene)-1,3,5-heptatrien-1-yl]-, iodide (1:1)	508.15	
17695-46-4	4-Methylumbelliferone butyrate	367.15	
17695-48-6	4-Methylumbelliferyl palmitate	336.15	
17696-11-6	8-Bromooctanoic acid	311.65	
17696-37-6	4-(1,1-Dimethylethyl)-2,5-dimethylphenol	344.35	537.15
17696-62-7	Phenyl 4-hydroxybenzoate	445.15	
17696-64-9	1-Methylpropyl 2-chloroacetate		436.65
17696-94-5	Ethyl 2-[(phenylamino)carbonyl]hydrazinecarboxylate	445.15	
17696-95-6	N-Methylhydrazinecarboxamide	385.15	
17697-12-0	Phenylseleninyl benzeneseleninate	438.15	
17699-16-0	trans-Sabinene hydrate	333.65	
177-10-6	1,4-Dioxaspiro[4.5]decane	451.15	
17700-09-3	2,3,4-Trichloronitrobenzene	328.65	
17700-54-8	N-(2,6-Dichlorophenyl)acetamide	444.15	
17702-41-9	Decaborane	372.65	486.15
17704-22-2	2,4,6,8,10-Pentaethenyl-2,4,6,8,10-pentamethylcyclopentasiloxane	133.15	534.65
1771-03-5	Tetrahydro-5-propyl-1,3,5-triazin-2(1H)-one	455.15	
1771-18-2	2-Methoxy-10H-phenothiazine	457.65	
1771-19-3	3-Methoxy-10H-phenothiazine	436.15	
17715-00-3	2-Propyn-1-ylcyclohexane		430.65
17715-69-4	1-Bromo-2,4-dimethoxybenzene	298.15	412.65
1772-01-6	N-Hydroxy-2-pyridinecarboximidamide	388.9	
1772-03-8	Galactosamine hydrochloride	452.15	
1772-39-0	6-Nitro-2-(4-nitrophenyl)-1H-benzimidazole	573.15	
1772-43-6	2,4,4-Trimethyl-2-oxazoline		385.15
17721-95-8	2,6-Dimethyl-1-nitrosopiperidine	303.65	
17722-17-7	N-(4-Chlorophenyl)-2-cyanoacetamide	477.15	
17722-18-8	N1-(4-Chlorophenyl)propanediamide	418.15	
1773-89-3	Dimethyl chlorendate	353.65	
17730-18-6	1-[(Phenylmethoxy)carbonyl]-L-prolyl-L-methionine	407.15	
17737-65-4	Clonixin	507.15	
17739-41-2	3-Hydroxy-2-(3-hydroxy-2-quinolinyl)-1-oxo-1H-indene-6-carboxylic acid	647.15	
1774-34-1	4,4′-Sulfinylbis[phenol]	468.15	
1774-35-2	1,1′-Sulfinylbis[4-methylbenzene]	366.15	
1774-37-4	1,1′-Sulfinylbis[4-bromobenzene]	425.15	
1774-38-5	1,1′-Sulfinylbis[4-nitrobenzene]	433.15	
1774-47-6	Sulfoxonium, trimethyl-, iodide (1:1)	473.15	
1774-66-9	4-Bromochalcone	396.65	
177406-68-7	Benthiavalicarb isopropyl	425.15	
17741-86-5	N-(Hydroxymethyl)-N′-(methoxymethyl)urea	368.15	
17742-69-7	1,3-Dichloro-2-methoxy-5-nitrobenzene	370.65	
17743-62-3	N-[2-(4-Chlorophenyl)-1,1-dimethylethyl]acetamide	395.65	
17745-04-9	Imidazo[1,2-a]pyridine-3-acetic acid	528.65	
17745-45-8	B-Propylboronic acid	380.15	
17745-84-5	Acetamide, N,N′-[azinobis(methylidyne-4,1-phenylene)]bis-	582.65	
1775-86-6	2,3,4,4a,9,9a-Hexahydro-1H-carbazole	372.15	
1775-95-7	2-Amino-5-nitrobenzophenone	433.25	
17750-93-5	7,8,9,10-Tetrahydrobenzo[a]pyrene	386.15	
17754-44-8	Atractyloside	430.65	
17754-90-4	4-(Diethylamino)-2-hydroxybenzaldehyde	500.65	
17754-91-5	3-(1H-Benzimidazol-2-yl)-N,N-diethyl-2-imino-2H-1-benzopyran-7-amine	512.15	
1776-30-3	2′,4′-Dihydroxychalcone	423.15	
17760-13-3	Trichloro(trichloromethyl)silane	388.15	428.65
17768-28-4	1,3-Adamantanediacetic acid	517.4	
1777-82-8	2,4-Dichlorobenzyl alcohol	332.65	
1777-84-0	N-(4-Ethoxy-3-nitrophenyl)acetamide	396.15	
17773-10-3	Choline, iodide	531.15	
17778-80-2	Atomic oxygen	391.4	440.65
1778-02-5	Pregnenolone acetate	422.15	
1778-08-1	2-Hydroxy-N,N-dimethylbenzamide	438.15	
1778-09-2	1-[4-(Methylthio)phenyl]ethanone	352.65	
17781-31-6	Parinol	446.15	
17781-86-1	2-(Butylamino)benzoic acid	353.65	
17784-12-2	Sulfacytine	440.4	
17788-00-0	2,4-Dichloro-3-methylphenol	331.15	509.15
17789-14-9	2-(3-Bromophenyl)-1,3-dioxolane		405.65
1779-10-8	4,7-Dibromo-3-hydroxy-2-naphthalenecarboxylic acid	524.15	
1779-11-9	7-Bromo-3-hydroxy-2-naphthalenecarboxylic acid	535.15	
1779-13-1	(9Z)-9-Octadecene	272.15	
1779-25-5	Chlorobis(2-methylpropyl)aluminum	233.15	381.15
1779-48-2	Phenylphosphinic acid	357.15	
1779-49-3	Methyltriphenylphosphonium bromide	503.65	
1779-51-7	Butyltriphenylphosphonium bromide	508.15	
1779-54-0	Phosphonium, [(methylthio)methyl]triphenyl-, chloride (1:1)	494.15	
1779-58-4	Phosphonium, (2-methoxy-2-oxoethyl)triphenyl-, bromide (1:1)	423.15	
1779-60-8	Propyl acetoacetate	432.15	
1779-81-3	4,5-Dihydro-2-thiazolamine	358.45	
17790-93-1	2-(1-Methylethyl)-1H-indole	346.65	
17791-52-5	(tert-Butoxycarbonyl)-L-histidine	467.15	
17793-95-2	rel-(1R,2S)-3,5-Cyclohexadiene-1,2-diol	333.15	
17794-44-4	N-Methylbutanamide	383.65	
17795-24-3	S-Propyl-L-cysteine sulfoxide	434.65	
17796-82-6	2-(Cyclohexylthio)-1H-isoindole-1,3(2H)-dione	366.65	
178-10-9	3,3′-Spirobi[3H-naphtho[2,1-b]pyran]	535.15	
1780-17-2	2-Quinolinemethanol	337.15	
1780-31-0	2,4-Dichloro-5-methylpyrimidine	299.15	508.15
1780-40-1	2,4,5,6-Tetrachloropyrimidine	340.15	
17804-35-2	Benomyl	413.15	
17809-36-8	2-Fluoro-6-nitrobenzenamine	403.15	
1781-78-8	Cyclooctyne	272.15	347.15
17812-07-6	(2E)-4-Oxo-4-phenyl-2-butenoic acid	368.65	
17814-85-6	(4-Carboxybutyl)triphenylphosphonium bromide	474.15	
17817-31-1	6,7,4′-Trihydroxyisoflavone	595.15	
1782-06-5	5,6,7,8,10,10-Hexachloro-3a,4,4a,5,8,8a,9,9a-octahydro-5,8-methanonaphtho[2,3-c]furan-1,3-dione	552.15	
1782-10-1	2-Sulfohexadecanoic acid	363.75	
1782-17-8	N-Palmitoyl aspartic acid	394.9	
17823-38-0	4-Amino-2,3,5,6-tetrafluorobenzonitrile	369.65	
17824-83-8	3,4,5,6-Tetrachloro-2-pyridinecarbonitrile	422.15	
1783-25-1	N,N-Dimethyl-N′-phenylmethanimidamide	361.65	
1783-81-9	3-(Methylthio)benzenamine		437.15
1783-96-6	D-Aspartic acid	524.15	
17831-88-8	4-Chloro-2H-1-benzopyran-2-one	363.15	
17832-30-3	N,N′-1,2-Ethanediylbis[octanamide]	444.15	
17833-53-3	N-Methylaspartic acid	456.65	
17839-26-8	N-Ethyl-1-pentanamine		409.15
1784-04-9	L-Arginine, N2-benzoyl-, methyl ester, hydrochloride (1:1)	361.15	
1784-78-7	7-Chloro-5-cyclohexyl-1,3-dihydro-1-methyl-2H-1,4-benzodiazepin-2-one	430.15	
17843-02-6	Benzenamine, phosphate (2:1)	455.65	
17849-31-9	α-Chloro-4-nitrobenzenepropanenitrile	384.65	
17849-38-6	2-Chlorobenzyl alcohol	346.15	503.15
1785-02-0	1,3,5-Triphenyl-1,3,5-triazine-2,4,6(1H,3H,5H)-trione	548.15	
1785-09-7	2,7-Dibromo-9H-fluoren-4-amine	463.15	
1785-43-9	Chloro(ethanethiolato)mercury	553.15	
1785-51-9	1,6-Pyrenedione	582.15	
1785-67-7	1,2,4-Naphthalenetriol, 1,2,4-triacetate	407.15	
1785-74-6	Dibenzocycloheptenone oxime	442.65	
1785-95-1	2-Benzoyl-1H-indene-1,3(2H)-dione	381.15	
17852-28-7	2-Amino-5-methylbenzophenone	337.4	
17852-69-6	Quinolinium, 1-ethyl-6-methoxy-2-[[5-methoxy-3-(3-sulfopropyl)-2(3H)-benzoselenazolylidene]methyl]-, inner salt	606.65	
17854-07-8	Hexaphenylethane	501.65	
17854-51-2	2-Butenediperoxoic acid, mono(1,1-dimethylethyl) ester, (2Z)-	403.65	
17854-59-0	Mepixanox	432.65	
1786-03-4	2-(1-Naphthalenyl)-1H-indene-1,3(2H)-dione	477.65	
1786-05-6	4-Hydroxy-3-phenylcoumarin	480.15	
1786-81-8	Prilocaine hydrochloride	440.65	
17861-06-2	6-Ethoxy-9H-purine	494.15	
17861-60-8	3-Ethyl-1,1,1,3,5,5,5-heptamethyltrisiloxane		446.15
17865-32-6	Cyclohexyldimethoxymethylsilane		469.15
17865-54-2	Cyclohexyltrimethoxysilane		481.15
17865-85-9	1,3,5,7,9,11,13,15-Octamethylpentacyclo[9.5.1.13,9.15,15.17,13]octasiloxane	517.65	
17869-27-1	1-(3-Aminopropyl)silatrane	360.65	
17869-77-1	[(1,1-Dimethyl-2-propyn-1-yl)oxy]trimethylsilane	315.4	
1787-34-4	Phosphoric acid, dinonyl ester, sodium salt (1:1)	521.65	
1787-44-6	Phosphonium, methyl-d3-triphenyl-, bromide (1:1)	505.15	
1787-52-6	N-Acetyl-N-(2-methylpropyl)acetamide		483.15
17872-55-8	Propanoic acid, 3-hydroxy-2-(hydroxymethyl)-2-methyl-, methyl ester	397.65	
17872-56-9	3-Hydroxy-2-(hydroxymethyl)-2-methylpropanoic acid 2-phenylhydrazide	417.15	
17874-34-9	8-(1,1-Dimethylethyl)-4,6-dimethyl-2H-1-benzopyran-2-one	361.15	
17874-59-8	Piperidine, 1-methyl-, hydrochloride (1:1)	504.15	
1788-10-9	4-Acetylbenzenesulfonyl chloride	361.15	
1788-31-4	2-Propanone, 1,3-diphenyl-, oxime	387.15	
1788-93-8	3-(4-Chlorophenyl)-2-methyl-4(3H)-quinazolinone	430.65	
178804-04-1	4-(2-Benzothiazolyl)-2-methylbenzenamine	421.15	
17882-66-5	2-(Chloromethyl)-2,4,4,6,6,8,8-heptamethylcyclotetrasiloxane		487.15
17885-08-4	O-Phospho-DL-serine	439.65	
17888-62-9	(Hexyloxy)trimethylsilane		444.15
1789-02-2	3-[4-Bromo-2-(trifluoromethyl)phenyl]-2-methyl-4(3H)-quinazolinone	434.65	
1789-26-0	N-[6-[2-(5-Nitro-2-furanyl)ethenyl]-1,2,4-triazin-3-yl]acetamide	557.15	
1789-30-6	(2-Amino-5-chlorophenyl)cyclohexylmethanone	390.65	
1789-33-9	7-Chloro-5-cyclohexyl-1,3-dihydro-2H-1,4-benzodiazepin-2-one	485.15	
1789-58-8	Dichloroethylsilane	166.15	348.65
1789-84-0	4H-1,2,4-Benzothiadiazine-4-ethanol, 2,3-dihydro-7-(trifluoromethyl)-, 1,1-dioxide	373.65	
17890-10-7	N-[(Dimethoxymethylsilyl)methyl]benzenamine		528.15
17890-56-1	Benzo[b]thiophene-2-methanol	425.15	
178928-70-6	Prothioconazole	414.95	
17894-26-7	2,5-Dimethoxy-3-nitrobenzoic acid	455.15	
17899-33-1	3-Thiazolidineethanol, 2-imino-α-phenyl-, hydrochloride (1:1)	496.15	
17900-68-4	3,4-Dimethyl-1-phenyl-2-pyrazolin-5-one	393.15	
17902-23-7	Tegafur	445.15	
17912-87-7	Myricitrin	471.15	
17913-10-9	4-Phenyl-2-pentanone	345.15	
17913-18-7	1-Chloro-4-methoxybutane		415.8
17916-30-2	(3β)-3-(Acetyloxy)pregn-5-en-20-one 20-oxime	457.15	
17916-88-0	N-Acetyl-D-valine	414.15	
17918-11-5	α-Phenyl-1-aziridineethanol	346.15	
17918-14-8	2,5-Dimethoxybenzoyl chloride	326.65	
1792-17-2	Dibutylurea	343.9	
1792-40-1	2-Methyl-5-nitrobenzimidazole	497.15	
1792-81-0	cis-1,2-Cyclohexanediol	373.15	393.15
17920-23-9	Propanedioic acid, 2-(2-propyn-1-yl)-, 1,3-diethyl ester	451.15	
17920-88-6	2,2′-(1-Methylethylidene)bis[furan]	261.15	
17924-92-4	Zearalenone	437.65	
17928-28-8	Methyltris(trimethylsiloxy)silane	199.15	
1793-90-4	Triethyl-2-propen-1-ylgermane		454.65
17931-55-4	Bicyclo[3.3.1]nonan-9-one	426.15	
17933-03-8	3-Methylphenylboronic acid	430.15	
17936-73-1	4-Methyl-α-(trichloromethyl)benzenemethanol	336.15	
1794-84-9	Chloronitromethane		395.65
1794-86-1	Carbonimidic dichloride, hydroxy-	312.65	402.15
1794-89-4	9,10,12,13-Tetrabromooctadecanoic acid	388.15	
1794-90-7	2-Nitro-1,3-propanediol	331.65	
17946-87-1	Leukomisin	475.65	
17947-85-2	Silanol, 1,1,1-tris(1,1-dimethylethoxy)-, 1-acetate	321.9	
17948-33-3	(-)-1,11-Dihydro-5-hydroxy-11-methyl-2-(1-methylethenyl)furo[2,3-c]acridin-6(2H)-one	434.65	
1795-01-3	3-Ethylthiophene	184.05	409.15
1795-04-6	2,3,4-Trimethylthiophene	246.95	435.15
1795-05-7	2,3,5-Trimethylthiophene		437.65
1795-09-1	2-Methyltetrahydrothiophene	172.45	407.15
1795-15-9	Octylcyclohexane	253.15	537.15
1795-16-0	Decylcyclohexane	271.45	572.15
1795-17-1	Dodecylcyclohexane	285.65	604.15
1795-18-2	Tetradecylcyclohexane	297.15	633.15
1795-48-8	Isopropyl isocyanate	489.65	347.65
1795-96-6	Phenylalanine ethyl ester	334.65	
17952-11-3	Amyl ethyl ether		390.75
17952-82-8	2,3,4,9-Tetrahydro-1H-pyrido[3,4-b]indol-1-one	457.15	
17952-83-9	6-Chloro-2,3,4,9-tetrahydro-1H-pyrido[3,4-b]indol-1-one	498.65	
17952-87-3	2,3,4,9-Tetrahydro-6-methoxy-1H-pyrido[3,4-b]indol-1-one	549.15	
17962-22-0	1-[2-(Trimethylsilyl)ethynyl]cyclohexanol	345.15	
17962-38-8	1,3-Diethyl 2-[(trimethylsilyl)methyl]propanedioate	434.65	
17964-10-2	1,1′-(Diethylsilylene)bis[benzene]		569.65
17964-30-6	1,1′-[(Dimethylsilylene)bis(methylene)]bis[benzene]	329.55	
17966-25-5	Distearoylphosphatidic acid	452.65	
17966-68-6	N-Benzoylaspartic acid	447.15	
17968-82-0	PGD1	338.15	
17969-20-9	Fenclozic acid	428.65	
1797-76-8	Benzenemethanol, α-[(dimethylamino)methyl]-, hydrochloride (1:1)	423.65	
17976-32-8	3-Methoxyestra-2,5(10)-dien-17-one	405.15	
1798-04-5	2-[4-(1,1-Dimethylethyl)phenoxy]acetic acid	353.15	
1798-06-7	4-Iodophenylacetic acid	408.65	
1798-09-0	(3-Methoxyphenyl)acetic acid	345.15	
1798-11-4	(4-Nitrophenoxy)acetic acid	456.15	
1798-50-1	4-Piperidinemethanol, α,α-diphenyl-, hydrochloride (1:1)	557.15	
1798-83-0	1-Propanone, 1-(4-chlorophenyl)-3-(dimethylamino)-, hydrochloride (1:1)	447.65	
17980-47-1	Isobutyltriethoxysilane		463.65
17989-89-8	2,5-Diamino-3,4-thiophenedicarbonitrile	517.15	
179911-08-1	N-Ethyl-N-(m-tolyl)propionamide	414.15	
17995-04-9	N,9-Bis(trimethylsilyl)-9H-purin-6-amine	360.15	
1800-91-5	3,3,4,4,5,5,6,6,7,7,8,8-Dodecafluoro-1,9-decadiene		409.15
18000-24-3	7-Chlorokynurenic acid	550.65	
18001-60-0	1,1,3,3-Tetraethoxy-1,3-dimethyldisiloxane		478.15
18004-57-4	9-Anthracenecarboxaldehyde, oxime	433.15	
1801-10-1	3-(Trifluoromethyl)benzamide	394.9	
1801-20-3	2-Bromo-2-phenyl-1H-indene-1,3(2H)-dione	404.65	
1801-21-4	2,2′-Diphenyl[2,2′-bi-1H-indene]-1,1′,3,3′(2H,2′H)-tetrone	514.15	
1801-42-9	2,3-Diphenyl-1H-inden-1-one	425.15	
1801-72-5	N,N′-Di-2-propen-1-ylurea	364.65	
18010-40-7	Bupivacaine hydrochloride	528.65	
18014-00-1	1,4-Dimethyl 2,5-dibromo-1,4-benzenedicarboxylate	421.75	
18016-80-3	Lisuride	459.15	
18018-09-2	1,3-Dichloro-2-methyl-9,10-anthracenedione	445.15	
18018-34-3	1-Ethyl-2-methyl-5-(trifluoromethyl)-1H-benzimidazol-6-amine	478.15	
1802-12-6	Phytolaccagenin	590.15	
180200-68-4	Tilmacoxib	439.65	
18023-33-1	Vinyltriisopropoxysilane		452.65
18023-86-4	3-(Dodecylthio)-1,2-propanediol	326.15	
18026-87-4	1,1,1-Trichloro-2,2,2-trimethyldisilane	296.15	422.15
18027-10-6	Sodium trimethylsilanolate	421.65	
18028-57-4	6-Methoxy-1,4-dimethyl-9H-carbazole	409.65	
18029-54-4	5-[3-(Dimethylamino)propyl]-5H-dibenzo[a,d]cyclohepten-5-ol	412.65	
18030-61-0	4-(Trichlorosilyl)-1,1′-biphenyl	328.15	
18031-40-8	(S)-Perillaldehyde		377.65
18039-42-4	5-Phenyltetrazole	488.15	
18039-45-7	2,5-Diphenyl-2H-tetrazole	374.15	
1804-28-0	1-[(4-Methylphenyl)methyl]cyclopropanecarboxylic acid	383.65	
1804-87-1	2-Propenoic acid, 2-methyl-, 2-sulfoethyl ester, sodium salt (1:1)	518.15	
18042-54-1	Silanetriol, 1-phenyl-, 1,1,1-triacetate	307.65	
18046-21-4	Fentiazac	434.65	
18048-85-6	5′-O-(Triphenylmethyl)adenosine	523.15	
1805-22-7	Perfluoromethylcyclopentane	318.15	321.15
1805-32-9	3,4-Dichlorobenzenemethanol	309.15	422.65
1805-61-4	4-(3-Methylbutyl)phenol	301.15	
18053-31-1	Fominoben	395.9	
18053-44-6	2-[[(2-Amino-6-chlorophenyl)methyl]methylamino]-1-(4-morpholinyl)ethanone	390.15	
18059-99-9	5H-Dibenzo[a,d]cyclohepten-5-one, O-[2-(methylamino)ethyl]oxime, hydrochloride (1:1)	505.65	
1806-23-1	(2-Chlorophenyl)(4-fluorophenyl)methanone	331.65	
1806-25-3	2-Fluoro-7-nitro-9H-fluorene	474.65	
1806-26-4	4-n-Octylphenol	315.65	
1806-29-7	[1,1′-Biphenyl]-2,2′-diol	382.15	593.15
1806-34-4	1,4-Bis(5-phenyl-2-oxazolyl)benzene	518.15	
1806-98-0	Estradiol 17β-glucuronide	473.15	
18060-77-0	1-Methylethyl 2-butenoate		418.9
18063-03-1	2,6-Difluorobenzamide	419.65	
18066-04-1	Ethyl 2-[(2-hydroxybenzoyl)amino]benzoate	293.65	
18067-13-5	3-Oxa-9-azoniatricyclo[3.3.1.02,4]nonane, 7-[(2S)-3-hydroxy-1-oxo-2-phenylpropoxy]-9,9-dimethyl-, (1α,2β,4β,5α,7β)-, methyl sulfate (1:1)	415.65	
18069-79-9	Estra-1,3,5(10)-triene-3,17-diol (17β)-, 17-butanoate	439.9	
1807-02-9	11α-Hydroxy-17α-methyltestosterone	434.15	
1807-15-4	17,21-Bis(acetyloxy)pregn-4-ene-3,20-dione	494.15	
1807-36-9	8-Methyl-2H-1-benzopyran-2-one	379.65	
1807-55-2	4,4′-Methylenebis[N-methylbenzenamine]	328.65	
1807-85-8	3,7-Dihydro-1,3-dimethyl-7-(phenylmethyl)-1H-purine-2,6-dione	431.15	
18071-38-0	2-(Dibutylamino)acetonitrile		358.15
18073-15-9	6-Methoxy-1,4-dimethyl-9H-carbazole-3-carboxaldehyde	479.15	
18073-34-2	9-Bromo-5,11-dimethyl-6H-pyrido[4,3-b]carbazole	591.65	