CAS	name	Tm	Tb
19549-84-9	3,5-Dimethyl-4-heptanone	618.15	435.15
1955-04-0	Benzoic acid, 3-(chlorocarbonyl)-5-nitro-, methyl ester	346.35	
1955-45-9	Pivalolactone	260.15	
1955-46-0	1-Methyl 5-nitro-1,3-benzenedicarboxylate	450.15	
19550-05-1	3,4-Dimethyl-2-hexanol		438.65
19550-07-3	2,5-Dimethyl-3-hexanol		430.65
19550-14-2	4,4-Dimethyl-3-hexanone		424.15
19550-30-2	2,3-Dimethyl-1-butanol	419.65	
19550-48-2	1,4-Dimethylcyclopentene		366.35
19550-88-0	(3E)-3,4-Dimethyl-3-hexene	392.65	
1956-06-5	p-Nitrophenyl propionate	338.4	
1956-11-2	p-Nitrophenyl laurate	310.75	
1956-25-8	5-(Phenylmethoxy)tryptophan	548.65	
1956-30-5	Uridine, 2′-deoxy-5-iodo-, 3′,5′-diacetate	429.65	
1956-39-4	p-Chloroacetophenone oxime	370.9	
1956-45-2	1-(2-Thienyl)ethanone oxime	387.65	
19561-70-7	Nifuratrone	424.15	
19562-30-2	Piromidic acid	588.15	
19562-44-8	3-(2-Fluorophenyl)-1,2,3-benzotriazin-4(3H)-one	415.15	
19576-38-6	α1,α1,α3,α3,α5,α5-Hexamethyl-1,3,5-benzenetrimethanol	424.15	
19578-81-5	2,4-Dichloro-6-(phenylmethyl)phenol	350.4	
19578-92-8	3,4-Dimethoxy-α-methylbenzeneethanol	317.15	
19579-46-5	Imidodicarbonimidic diamide, N-(4-ethoxyphenyl)-, hydrochloride (1:1)	493.15	
19581-24-9	2-[(4-Nitrophenyl)thio]pyrimidine	383.65	
19585-93-4	1-Methylperimidine	393.65	
19591-17-4	N-(2-Iodophenyl)acetamide	383.15	
19592-55-3	Pregna-5,7-diene-3,20-dione, cyclic 3,20-bis(1,2-ethanediyl acetal)	460.65	
19594-02-6	(2-Ethoxyethoxy)benzene		503.15
19597-07-0	1,3-Dimethyl-2-pyrrolidinone		369.65
196-28-1	Dibenzo[c,mno]chrysene	438.65	
196-42-9	Naphtho[2,3-a]pyrene	546.15	
196-78-1	Benzo[g]chrysene	387.9	
196-79-2	Benzo[h]naphtho[1,2-f]quinoline	399.15	
19602-82-5	2,2′-Dithiodibenzoyl chloride	426.15	
19605-80-2	6,10-Methanobenzocyclodecene-3,8,11,12-tetrol, 1,2,3,4,4a,5,6,7,8,11,12,12a-dodecahydro-9,12a,13,13-tetramethyl-4-methylene-, 3,8,11,12-tetraacetate, (3S,4aR,6R,8S,11R,12R,12aR)-	404.65	
1961-72-4	(±)-3-Hydroxytetradecanoic acid	351.65	
1961-77-9	Chlormadinone	486.15	
19613-02-6	2-Thiophenecarboxylic acid, compd. with (3S)-6,7-dimethoxy-3-[(5R)-5,6,7,8-tetrahydro-4-methoxy-6-methyl-1,3-dioxolo[4,5-g]isoquinolin-5-yl]-1(3H)-isobenzofuranone (1:1)	381.65	
19619-22-8	4-Amino-1,3-benzenedicarbonitrile	490.65	
1962-74-9	1,4-Dipropyl 1,4-benzenedicarboxylate	303.15	
1962-75-0	1,4-Dibutyl 1,4-benzenedicarboxylate	289.15	428.15
19622-55-0	Megazol	542.15	
19624-22-7	Pentaborane(9)	226.55	333.15
1963-03-7	Androst-5-ene-3β,17α-diol	480.65	
1963-21-9	Glycyl-L-valine	515.65	
1963-36-6	4-Methoxycinnamaldehyde	332.4	
1963-82-2	1,8-Bis(acetyloxy)-9,10-anthracenedione	500.15	
19643-45-9	2,6-Dibromo-1,4-benzoquinone	404.65	
19645-77-3	5-Chloro-2,4,6(1H,3H,5H)-pyrimidinetrione	619.65	
1965-09-9	4,4′-Dihydroxydiphenyl ether	433.15	
1965-19-1	2-(2-Methoxyphenyl)-4,5-diphenyl-1H-imidazole	319.65	
1965-81-7	1,1′-[(6-Phenoxy-1,3,5-triazine-2,4-diyl)diimino]bis[9,10-anthracenedione]	620.15	
1965-82-8	1-[(4,6-Diphenoxy-1,3,5-triazin-2-yl)amino]-9,10-anthracenedione	499.65	
19659-64-4	Dodecanethioic acid, 1,1′-anhydrosulfide	326.15	
196597-26-9	Ramelteon	387.15	
1966-58-1	Dichlormate	326.65	
196618-13-0	Oseltamivir	380.65	
19666-30-9	Oxadiazon	363.15	
19669-65-9	19-Norpregn-5(10)-en-20-yn-17-ol, 3,3-dimethoxy-, (17α)-	445.15	
1967-16-4	Chlorbufam	318.65	
1967-31-3	2-Chloro-1,4-benzenedicarboxylic acid	580.15	
19672-91-4	N-Phenyl-N-(phenylmethyl)benzamide	377.15	
19675-63-9	4-(2-Carboxyethenyl)benzoic acid	528.15	
19679-75-5	Tetrahydro-2-methyl-2-furancarbonitrile		336.15
1968-05-4	3,3′-Diindolylmethane	440.15	
196808-45-4	Farglitazar	422.15	
19683-98-8	(3S,4R,5S)-4-Hydroxy-5-methoxy-4-[(2S,3R)-2-methyl-3-(3-methyl-2-buten-1-yl)-2-oxiranyl]-1-oxaspiro[2.5]octan-6-one	367.65	
19685-09-7	Hydroxycamptothecin	542.15	
19686-05-6	2,8-Dimethyl-2,3,4,5-tetrahydro-1H-pyrido[4,3-b]indole	372.15	
19686-73-8	1-Bromo-2-propanol		419.65
19687-73-1	3-[[(2-Nitrophenyl)methylene]amino]-2-oxazolidinone	448.65	
19689-19-1	5-Decene		442.75
1969-73-9	2-Nitrobenzeneacetaldehyde	295.65	
19692-45-6	4-tert-Butylbenzyl chloride	255.15	
19693-75-5	2-Methoxy-1,3-dioxolane		402.65
19694-10-1	3-Amino-4-chlorobenzamide	437.15	
19698-29-4	Dipalmitoylphosphatidic acid	335.65	
197-61-5	Rubicene	578.15	
1970-40-7	Pyriclor	489.15	
19700-21-1	Geosmin		543.15
19708-81-7	O,S-Dimethyl carbonodithioate		441.15
1971-57-9	Bicyclo[2.2.1]heptane-1-methanesulfonic acid, 7,7-dimethyl-2-oxo-, (1S,4R)-, compd. with 6-methyl-2-heptanamine (1:1)	364.65	
19715-19-6	3,5-Bis(1,1-dimethylethyl)-2-hydroxybenzoic acid	437.55	
19716-61-1	8-Oxocoptisine	557.15	
19719-28-9	2,4-Dichlorophenylacetic acid	404.15	
1972-03-8	1,8,8-Trimethyl-3-azabicyclo[3.2.1]octane-2,4-dione	516.15	
1972-28-7	Diethyl azodicarboxylate	393.15	
19721-56-3	Pikromycin	442.65	
19727-83-4	6-Nitroindoline	341.15	
19728-63-3	Z-Thr-OH	376.65	
19728-71-3	3-Methoxy-O,α-dimethyl-L-tyrosine methyl ester	343.65	
1973-05-3	N2,N4,N6-Triphenyl-1,3,5-triazine-2,4,6-triamine	463.15	
1973-22-4	1-Bromo-2-ethylbenzene	205.25	472.45
19731-91-0	α,β-Dimethylbenzenepropanoic acid	410.65	397.65
19735-89-8	3-Methyl-1-phenylpyrazolone	401.15	
1974-04-5	2-Bromoheptane	320.15	439.15
1974-05-6	3-Bromoheptane		335.15
1974-09-0	Ethanamine, 2-(2-benzoxazolylthio)-N,N-diethyl-, hydrochloride (1:1)	432.65	
19740-00-2	Benzeneoctadecanoic acid	349.65	
19740-72-8	Diisopropyl hydrazodicarboxylate	379.15	
19746-37-3	S-[(Acetylamino)methyl]-N-[(1,1-dimethylethoxy)carbonyl]-L-cysteine	384.15	
1975-50-4	2-Methyl-3-nitrobenzoic acid	425.15	
1975-51-5	2-Methyl-4-nitrobenzoic acid	424.65	426.15
1975-52-6	2-Methyl-5-nitrobenzoic acid	452.15	
1975-78-6	Decanenitrile	255.25	516.15
19750-95-9	Chlordimeform hydrochloride	499.15	
19752-55-7	Bromo-3,5-dichlorobenzene	356.15	505.15
19752-61-5	5-Bromo-2,4-bis(1,1-dimethylethoxy)pyrimidine	334.15	
19757-97-2	Methyl 2-hydroxy-2-methoxyacetate		391.65
19759-89-8	1-[Bis(p-dimethylaminophenyl)methyl]benzotriazole	433.15	
1976-04-1	2-Bromo-N,N-dimethylbenzenemethanamine	398.15	
19760-15-7	Pyridinium, 1-ethyl-2-methyl-, iodide (1:1)	396.15	
19763-90-7	Hydrazine, (3,4-dichlorophenyl)-, hydrochloride (1:1)	475.15	
19764-96-6	3H-Indolium, 2-[7-(1,3-dihydro-1,3,3-trimethyl-2H-indol-2-ylidene)-1,3,5-heptatrien-1-yl]-1,3,3-trimethyl-, iodide (1:1)	458.65	
1977-10-2	Loxapine	382.65	
1977-11-3	Perlapine	410.15	
1977-37-3	Methyl propyl sulfone	301.15	
19771-63-2	Procysteine	445.15	
19772-79-3	Methyl (2S,2aS,3′aR,4′aR,5aR,12bR,12′bR,12′cR,15aR,15′aS,17′aS)-2′,3′,4,4′a,5,6,8,12′c,13,13′,14,14′,17′,17′a-tetradecahydro-12′c-hydroxy-9′-methoxyspiro[1H,15aH-furo[2′,3′:7,8]indolizino[8,1-cd]carbazole-2(2aH),6′(7′H)-[4H,5H,15aH,16H]furo[2′,3′:7,8]indolizino[8,1-cd]pyrido[1,2,3-lm]carbazole]-7-carboxylate	559.15	
19773-46-7	Butyl (13Z)-13-docosenoate	307.15	484.65
19774-82-4	Amiodarone hydrochloride	429.15	
1978-61-6	4-(4-Fluorophenyl)-1,2,3,6-tetrahydropyridine hydrochloride	445.9	
19780-56-4	1-Ethyl-2-methylcyclopentene		400.75
19780-66-6	3-Ethyl-2-methyl-1-pentene	160.25	382.65
19780-67-7	3-Ethyl-2-methyl-2-pentene		387.9
19781-11-4	2,7-Dimethyl-4-octanol		369.15
19781-13-6	4,7-Dimethyl-4-octanol		465.15
19781-18-1	2,3-Dimethyl-2-octene		431.75
19781-53-4	2,4-Dimethyl-4-penten-2-ol		405.15
19781-72-7	11-Heneicosanone	337.55	
19781-73-8	Heptadecylcyclohexane	311.15	670.15
19788-35-3	Methyl 5-methyl-3-isoxazolecarboxylate	362.65	
19789-60-7	(2S)-2-(Acetylamino)-6-aminohexanamide	409.15	
19789-70-9	N-Methyl-N-[3-oxo-3-(3,3a,8,9-tetrahydrobenzo[6,7]cyclohept[1,2,3-de]isoquinolin-2(1H)-yl)propyl]formamide	432.15	
19794-93-5	Trazodone	360.15	
19795-11-0	N-[3-(Dimethylamino)propyl]-3-hydroxy-2-naphthalenecarboxamide	427.15	
19795-96-1	2-[(9,10-Dihydro-9,10-dioxo-1-anthracenyl)amino]benzoic acid	555.15	
19797-32-1	3,5-Dichlorobenzenesulfonamide	420.65	
19798-81-3	2-Amino-6-bromopyridine	362.4	
198-55-0	Perylene	546.65	770.15
1980-46-7	2-Thenylamine, N-(α-methylphenethyl)-, acetate, (+)-	368.15	
1980-93-4	4-[2-(3,3-Dimethyl-3H-indol-2-yl)ethenyl]phenol	488.15	
19803-62-4	1,4-Piperazinedicarboximidamide, N1,N4-bis[[(4-chlorophenyl)amino]iminomethyl]-, hydrochloride (1:2)	553.65	
19804-27-4	4-Methyldiphenhydramine	426.15	416.15
19805-75-5	3-Carbamoyl-2,2,5,5-tetramethyl-3-pyrroline	451.65	
19806-17-8	1,3-Benzenediacetic acid	444.9	
19808-30-1	5-Bromo-4(3H)-pyrimidinone	472.65	
19810-04-9	1-(2,4-Dihydroxyphenyl)-1-undecanone	342.15	
19810-73-2	2-(Dimethylamino)-6-methyl-4(3H)-pyrimidinone	451.15	
19810-74-3	6-Methyl-2-(4-morpholinyl)-4(3H)-pyrimidinone	517.15	
19811-05-3	2,4-Dichlorobenzophenone	321.15	
19812-63-6	1,14-Diethyl tetradecanedioate	300.15	
19812-64-7	1,14-Tetradecanediol	358.95	
19812-93-2	4′-Cyano-4-hydroxybiphenyl	466.65	
19814-71-2	1,1′-Oxybis[3-methylbenzene]		557.15
19816-88-7	4-Methylbenzenesulfonic acid 2-[2-phenyl-1-(phenylmethyl)ethylidene]hydrazide	449.15	
19819-15-9	5,6,7,8-Tetrahydro-2-methyl[1]benzothieno[2,3-d]pyrimidin-4(1H)-one	558.15	
19819-18-2	5,6,7,8-Tetrahydro-2-phenyl[1]benzothieno[2,3-d]pyrimidin-4(1H)-one	577.15	
19819-98-8	2-(2-Methylphenyl)ethanol	275.15	516.65
1982-36-1	Homochlorcyclizine dihydrochloride	500.65	
1982-37-2	Methdilazine	360.65	
1982-42-9	2-(2,4-Dichlorophenoxy)acetamide	425.15	
1982-47-4	Chloroxuron	424.15	
1982-49-6	1-(2-Methylcyclohexyl)-3-phenylurea	408.65	
1982-55-4	4,5,7-Trichloro-2,1,3-benzothiadiazole	402.15	
1982-67-8	Methionine sulfoximine	489.15	
19824-56-7	Methanamine, N-methyl-, vanadium(4+) salt	330.65	
198283-73-7	Tebanicline	389.65	
19829-29-9	4(1H)-Pyridinethione	459.15	
19829-31-3	1-(3-Bromophenyl)-1-propanone	309.15	416.15
19829-72-2	2,3-Dihydroxy-1,4-benzenedicarboxylic acid	566.15	
1983-10-4	Tributyltin fluoride	533.15	
1983-34-2	1-(3-Chlorophenyl)-3-methyl-2,4,6(1H,3H,5H)-pyrimidinetrione	435.65	
1983-99-9	Benzoic acid, 4-isocyano-, ethyl ester	372.15	
19832-87-2	2-Chloro-5-methyl-1,4-benzoquinone	377.4	
19832-98-5	4-Methyl-1-tetralone		425.65
19833-25-1	Patulitrin	535.15	
19833-78-4	Ethanamine, N-ethyl-, hydriodide	438.15	
19836-78-3	3-Methyl-2-oxazolidinone	302.18	
19837-85-5	4-Amino-N-(2-chlorophenyl)benzenesulfonamide	434.65	
19838-07-4	3-Methyl-2(1H)-pyrazinone	424.15	
19838-08-5	3-Methyl-2-pyrazinamine	439.15	
1984-06-1	Sodium octanoate	517.15	
1984-15-2	Methylenediphosphonic acid	472.65	
1984-23-2	1-Isocyano-4-nitrobenzene	369.15	
1984-44-7	2,3-Dihydro-2,6,9-trihydroxy-3,4-dimethyl-7-(1-methylethyl)-3-(2-propen-1-yl)naphtho[2,3-b]furan-5,8-dione	409.4	
1984-58-3	1,4-Dichloro-2-methoxybenzene	297.15	
1984-59-4	2,3-Dichloroanisole	305.15	
1984-65-2	2,6-Dichloroanisole		378.65
1984-77-6	Glycidyl laurate		563.15
19840-99-4	7-Amino-4-methyl-2-quinolinone	547.15	
19841-73-7	4-Benzhydrylpiperidine	372.15	
19846-21-0	2,4-Dichloro-1,3-benzenedicarbonitrile	412.9	
19847-10-0	2-Pyrazinecarbonyl chloride	333.15	
19847-12-2	Pyrazinecarbonitrile	293.15	360.15
1985-12-2	4-Bromophenyl isothiocyanate	333.65	
1985-46-2	N,N-Dimethylmelamine	579.65	
1985-48-4	7-Methylcaprolactam	323.15	
1985-51-9	Neopentyl glycol dimethacrylate		360.15
1985-59-7	1,1-Dimethyl-1,2,3,4-tetrahydronaphthalene		494.15
19851-61-7	1,4-Bis(phenylmethyl) 1,4-benzenedicarboxylate	367.15	
19855-39-1	Purpurea glycoside B	516.15	
198561-07-8	Fmoc-L-propargylglycine	449.15	
19858-14-1	2-(Methoxymethyl)thiirane		607.15
1986-00-1	4-Hydroxy-9-fluorenone	523.15	
1986-44-3	5-Methylrhodanine	396.65	
1986-61-4	N-(4-Nitrophenyl)benzenecarboximidamide	440.15	
1986-70-5	Calotropin	496.15	
1986-81-8	Nicotinamide N-oxide	548.65	
1986-89-6	1-(Octylsulfinyl)octane	344.65	
1986-90-9	1,1′-Sulfinylbis[pentane]	313.15	
19868-02-1	2-Pyrimidinamine, hydrochloride (1:?)	494.65	
1987-50-4	4-n-Heptylphenol	297.15	438.15
19870-75-8	(3R,3aS,6S,7R,8aS)-Octahydro-3,6,8,8-tetramethyl-6-propoxy-1H-3a,7-methanoazulene		381.15
19875-60-6	Lisuride maleate	473.15	
19877-89-5	(3α,14β,16α)-14,15-Dihydroeburnamenin-14-ol	382.15	
19878-10-5	Linoleic acid anilide	296.15	
19879-30-2	Bavachinin	427.65	
19879-84-6	Tetra-O-acetyl-1-thio-β-D-glucopyranose	347.65	
19879-97-1	Trimethyl(1-propen-1-yloxy)silane		373.65
1988-18-7	2-Naphthalenol, 2-formate	293.9	
1988-89-2	4-(1-Phenylethyl)phenol	337.15	
19881-18-6	Nitroscanate	383.15	
19881-53-9	Phenylalanine, ethyl ester, hydrochloride (1:1)	410.65	
19883-41-1	D-Phenylglycine methyl ester hydrochloride	472.65	
19885-10-0	Alisol A	363.65	
19885-51-9	Aranotin	472.15	
19888-56-3	Fluazacort	526.65	
19889-01-1	Arctiopicrin	388.15	
19889-37-3	2-Ethyl-2-methylbutanoic acid		480.15
19889-95-3	(1R,2S,3R,5S)-2,6,6-Trimethylbicyclo[3.1.1]heptan-3-ol	300.15	
19889-99-7	(1S,3S,5S)-6,6-Dimethyl-2-methylenebicyclo[3.1.1]heptan-3-ol	320.15	
1989-25-9	4-Chloro-α,α-dimethylbenzenemethanol	304.65	367.15
1989-33-9	Fluorene-9-carboxylic acid	502.65	
1989-52-2	Cholesteryl myristate	356.15	
1989-53-3	2,6-Dimethoxybenzoyl chloride	338.15	
198904-31-3	Atazanavir	472.15	
19891-05-5	Phorbol 12,13,20-triacetate	401.65	
19895-66-0	1,2:5,6-Dianhydro-D-mannitol	338.65	
19895-95-5	Kaempferol 3-O-sophoroside	468.15	
19898-58-9	rel-(1R,3S,4S,6S)-3,7,7-Trimethylbicyclo[4.1.0]heptane-3,4-diol	363.15	
19898-59-0	rel-(1R,3R,4S,6S)-3,7,7-Trimethylbicyclo[4.1.0]heptane-3,4-diol	343.15	
19898-60-3	Bicyclo[4.1.0]heptane-3,4-diol, 3,7,7-trimethyl-, (1α,3β,4β,6α)-	410.15	
19898-61-4	rel-(1R,3R,4R,6S)-3,7,7-Trimethylbicyclo[4.1.0]heptane-3,4-diol	303.15	
199-54-2	Benz[e]aceanthrylene	411.15	
1990-11-0	Cholesteryl cinnamate	429.15	
1990-29-0	D-Altrose	376.65	
1990-78-9	3-Azabicyclo[3.2.2]nonane, 3-(2-chloroethyl)-, hydrochloride (1:1)	484.65	
1990-90-5	3-Methyl-4-pyridinamine	381.65	
19900-65-3	4,4′-Methylenebis[2-ethylbenzenamine]	319.15	
19902-91-1	(+)-Dihydromethysticin	390.65	
1991-52-2	2,5-Di-tert-butyl-4-methoxyphenol	375.4	
19910-33-9	2-(4-Nitrophenyl)propionic acid	373.4	
19912-62-0	epi-α-Muurolol	352.4	
19916-73-5	6-(Phenylmethoxy)-9H-purin-2-amine	476.65	
1992-48-9	Tetraisopropoxysilane	419.15	458.65
19920-34-4	2,3-Dihydro-5-methyl-ε,2-dioxo-1H-imidazole-4-hexanoic acid	487.4	
19924-43-7	(3-Methoxyphenyl)acetonitrile		425.15
19931-87-4	2-Phenyl-1H-indole-1-propanenitrile	361.9	
19932-26-4	2-[(2,2,3,3-Tetrafluoropropoxy)methyl]oxirane		383.65
19932-84-4	6-Chloro-2,3-dihydrobenzoxazol-2-one	469.15	
19932-85-5	6-Bromo-2(3H)-benzoxazolone	462.15	
199327-61-2	7-Methoxy-6-(3-morpholinopropoxy)-3,4-dihydroquinazolin-4-one	507.65	
19933-24-5	3-(2-Thienyl)-1H-pyrazole	371.65	
19937-59-8	Metoxuron	399.65	
19942-78-0	Thiocyanic acid, octyl ester	378.15	
19947-75-2	5-Amino-3,4-dimethylisoxazole	398.15	
19952-47-7	2-Amino-4-chlorobenzothiazole	476.15	
19952-58-0	5-Butyl-2-chloro-5-ethyl-1,3,2-dioxaphosphorinane		354.15
19957-85-8	1-Methyl-4-(1-methylene-2-propen-1-yl)cyclohexene		445.15
19961-27-4	N-Ethyl-2-propanamine		342.75
199666-03-0	3,4-Dimethoxy-N-[4-(3-nitrophenyl)-2-thiazolyl]benzenesulfonamide	458.15	
19967-57-8	Propanal, 2-bromo-	324.65	382.65
19968-85-5	Cyclohexanol, 1-(aminomethyl)-, hydrochloride (1:1)	478.15	
19971-12-1	4-Piperidinone, 3,5-dibromo-2,2,6,6-tetramethyl-, hydrobromide (1:1)	465.05	
19980-23-5	[(1E)-1-Buten-1-yloxy]trimethylsilane		393.15
19980-43-9	1-[(Trimethylsilyl)oxy]cyclopentene		431.65
19982-08-2	Memantine	531.15	
19983-15-4	4,5-Dihydro-2-phenyl-4-thiazolecarboxylic acid	398.65	
19984-46-4	1-(1-Adamantyl)piperazine	357.15	
199850-67-4	N-[(4′-Bromo[1,1′-biphenyl]-4-yl)sulfonyl]-L-valine	465.65	
1999-33-3	Glycyl-L-asparagine	476.15	
1999-34-4	Glycylmethionine	477.15	
1999-56-0	6-Hexyl-2-naphthalenol	374.15	
19992-80-4	Butixirate	498.65	
19996-02-2	10-Chloro-9-anthracenemethanol	477.15	
19996-03-3	9-Chloro-10-(chloromethyl)anthracene	434.65	
200-23-7	Benzo[kl]xanthene	382.15	668.15
2000-40-0	N-(2,2,2-Trichloro-1-hydroxyethyl)urea	423.15	
2000-43-3	2,2,2-Trichloro-1-phenylethanol	310.15	
20004-62-0	Resistomycin	598.15	
20007-72-1	(±)-Wieland-Miescher ketone	315.15	
2001-23-2	1-[1,1′-Biphenyl]-4-yl-2-phenylethanone	412.15	
2001-29-8	1-(4-Bromophenyl)-2-phenylethanone	387.4	
2001-32-3	2-Nitrobenzenepropanoic acid	388.15	
2001-45-8	Tetraphenylphosphonium chloride	539.15	
2001-81-2	Diponium bromide	458.65	
2001-96-9	p-Nitrophenyl β-D-xylopyranoside	433.15	
20012-63-9	2-Benzyloxyaniline	312.65	
20017-67-8	γ-Phenylbenzenepropanol	294.15	
20017-68-9	3,3-Diphenylpropyl bromide	316.15	
2002-04-2	5-(Pyridin-4-yl)-1,3,4-thiadiazol-2-amine	513.65	
2002-16-6	N-Phenylguanidine	495.15	
2002-24-6	Ethanolamine hydrochloride	357.15	
2002-44-0	L-Prolyl-L-leucylglycinamide	395.65	
20020-02-4	1,2,3,4-Tetrachloronaphthalene	472.15	
20027-77-4	5,6-Dimethyltetralin		525.15
20028-80-2	3-Amino-1,2,4-benzotriazine	479.65	
20029-52-1	4-Cyclohexylbenzoic acid	382.15	
2003-31-8	2-Propynenitrile, 3-chloro-	315.15	
2003-86-3	1,1,1,2,3,3,3-Heptamethyl-2-(trimethylsilyl)trisilane	327.4	
20031-21-4	1,2-O-Isopropylidene-α-D-xylofuranose	313.65	423.65
20036-08-2	3-(Aminosulfonyl)-4-chloro-N-(5-hydroxy-1,5-dimethylhexyl)benzamide	447.15	
2004-03-7	6-Methylpurine	508.65	
2004-04-8	4′,5′-Didehydro-1′-C-(hydroxymethyl)adenosine	434.15	
2004-07-1	2-Amino-6-chloropurine riboside	444.65	
2004-39-9	1-Heptacosanol	355.15	
2004-67-3	4-Methyl-4-penten-2-ol		402.15
2004-69-5	trans-3-Penten-1-yne		325.35
2004-70-8	trans-1,3-Pentadiene	185.65	315.15
20043-94-1	Benzoic acid, 4-amino-, dodecyl ester	355.15	
20045-09-4	Card-20(22)-enolide, 3-[(2,6-dideoxy-3,4-di-O-methyl-β-D-ribo-hexopyranosyl)oxy]-5,14,19-trihydroxy-, (3β,5β)-	439.15	
2005-08-5	Benzoic acid, 4-chlorophenyl ester	360.4	
2005-10-9	6H-Dibenzo[b,d]pyran-6-one	367.15	633.15
2005-98-3	1-(4-Amino-2-oxo-1(2H)-pyrimidinyl)-4-[[[(4S)-2-amino-1,4,5,6-tetrahydro-1-methyl-4-pyrimidinyl]acetyl]amino]-1,2,3,4-tetradeoxy-β-D-erythro-hex-2-enopyranuronic acid	511.15	
20051-76-7	(4α,5α,17β)-4,5-Epoxyandrost-2-eno[2,3-d]isoxazol-17-ol	479.15	
20057-09-4	3,4-Dihydro-3,4-phenanthrenediol	369.65	
20059-62-5	2-Methyl-N-phenylalanine methyl ester	342.15	
20062-22-0	2,2′,4,4′,6,6′-Hexanitrostilbene	484.15	
20062-64-0	2-[[1-(Phenylmethyl)-1H-imidazol-2-yl]methylene]hydrazinecarbothioamide	496.65	
20063-92-7	(3E)-3-Nonene		420.65
20064-98-6	Benzothiazolium, 3-methyl-2-(methylthio)-, iodide (1:1)	420.15	
20069-09-4	Piperlongumine	397.15	
2007-97-8	2,2,2-Trichloro-1,3,2-benzodioxaphosphole	323.15	
20071-53-8	2-Butenoic acid, 2-methyl-, (3aR,4R,6aR,7S,7aR,8aR,8bR,8cS)-dodecahydro-7,8b-dihydroxy-8a-methyl-3,6-bis(methylene)-2-oxooxireno[2,3]azuleno[4,5-b]furan-4-yl ester, (2Z)-	461.65	
20073-24-9	Ethyl 7-oxo-7H-furo[3,2-g][1]benzopyran-6-carboxylate	421.65	
20073-80-7	N1,N4-Dihydroxy-1,4-benzenedicarboxamide	509.15	
20074-79-7	Diethyl (4-aminobenzyl)phosphonate	367.15	
2008-07-3	2-Benzylbenzoxazole	302.15	
2008-39-1	Aminol	359.15	
2008-58-4	2,6-Dichlorobenzamide	472.15	
2008-59-5	1-Isocyano-3-nitrobenzene	371.15	
2008-75-5	1-(2-Chloroethyl)piperidine hydrochloride	504.15	469.15
2008-84-6	Ethyl 4-[2-[4-(ethoxycarbonyl)phenyl]diazenyl]-4,5-dihydro-5-oxo-1-phenyl-1H-pyrazole-3-carboxylate	553.15	
2008-88-0	Ethyl 4-[2-(2,5-dichlorophenyl)diazenyl]-4,5-dihydro-5-oxo-1-phenyl-1H-pyrazole-3-carboxylate	476.15	
2009-24-7	Xanthotoxol	418.15	
2009-83-8	6-Chloro-1-hexanol	375.15	
20098-38-8	1,2,4,5-Tetrachloro-3,6-dinitrobenzene	500.65	
20098-48-0	1,2,3-Trichloro-5-nitrobenzene	345.65	
20099-89-2	4-Cyanophenacyl bromide	366.15	
201-06-9	Acephenanthrylene	413.65	652.55
201-65-0	13H-Indeno[1,2-l]phenanthrene	431.65	
2010-06-2	2-Amino-4-phenylthiazole	425.65	
2010-15-3	Phenylthiohydantoin	452.65	
2010-16-4	3-(2-Propen-1-yl)-2-thioxo-4-imidazolidinone	359.15	
20101-86-4	1,4-Cyclohexanedicarboxamide	474.15	
20103-09-7	2,5-Dichloro-1,4-benzenediamine	443.15	
20103-10-0	2,6-Dichlorohydroquinone	430.65	
2011-22-5	Sarpaganium, 17-hydroxy-4-methyl-, chloride (1:1), (4α)-	522.65	
2011-48-5	Hydrazine, [(4-methoxyphenyl)methyl]-, hydrochloride (1:1)	467.65	
2011-57-6	N-(4-Hydroxy-2,3-dimethylphenyl)acetamide	441.15	
2011-66-7	2-Amino-5-nitro-2′-chlorobenzophenone	392.15	
2011-67-8	Nimetazepam	355.15	
2011-70-3	N-(2-Benzoyl-4-nitrophenyl)-2-bromoacetamide	428.65	
20112-79-2	2-(Methylthio)-2-imidazoline	374.15	
20119-28-2	2-(3,3-Dimethyl-1-triazen-1-yl)benzoic acid	472.65	
2012-29-5	2,4-Diiodophenol	345.65	