CAS	name	Tm	Tb
22156-34-9	2-(1,2-Dichloroethyl)-1H-isoindole-1,3(2H)-dione	368.15	
22156-48-5	γ-Phenylbenzenebutanenitrile	321.9	
22158-78-7	2-Chloro-N-(2,5-dimethoxyphenyl)acetamide	349.65	
2216-12-8	2-Nitrodiphenyl ether		469.15
2216-13-9	8-Nitro-1-naphthalenecarboxylic acid	487.65	
2216-15-1	N,N-Diethyl-4-nitrobenzenamine	350.65	
2216-32-2	4-Ethylheptane		414.35
2216-33-3	3-Methyloctane	165.55	417.35
2216-34-4	(±)-4-Methyloctane	159.85	415.55
2216-45-7	Benzenemethanol, 4-methyl-, 1-acetate	313.15	501.65
2216-51-5	(-)-Menthol	315.15	485.15
2216-68-4	N-Methyl-1-naphthalenamine	447.15	567.65
2216-69-5	1-Methoxynaphthalene		542.15
2216-81-1	Heptyl propionate	222.25	483.15
2216-84-4	1,2,3,4,5,6-Cyclohexanehexacarboxylic acid	496.15	
2216-87-7	3-Undecanone	285.15	500.15
2216-92-4	N-Phenylglycine ethyl ester	331.15	546.65
2216-94-6	2-Propynoic acid, 3-phenyl-, ethyl ester	422.65	538.15
22161-81-5	(+)-Ketoprofen	345.15	
2217-02-9	(+)-Fenchol	316.65	
2217-06-3	Picryl sulfide	499.15	
2217-07-4	N,N-Dipropylbenzenamine		515.15
2217-08-5	5,5-Dipropyl-2,4,6(1H,3H,5H)-pyrimidinetrione	418.15	
2217-14-3	1,4-Dipropyl 2,3-dihydroxy- (2R,3R)butanedioate		576.15
2217-17-6	2,4,5,7-Tetramethyloctane		459.4
2217-41-6	5,6,7,8-Tetrahydro-1-naphthylamine	311.15	552.15
2217-43-8	6-Aminotetralin	307.65	
2217-55-2	Bis(2,4-dinitrophenyl) disulfide	553.15	
2217-60-9	Thymohydroquinone	413.15	
2217-79-0	Diphenyliodonium iodide	435.15	
2217-81-4	(T-4)-Dichlorodiphenylselenium	456.15	
22172-17-4	1,8-Dihydroxy-3,7-dimethoxyxanthone	467.65	
22173-83-7	Benzenepropanamine, N,N,α-trimethyl-γ-phenyl-, hydrochloride (1:1)	426.15	
22179-72-2	4-Fluorothiobenzamide	421.15	
2218-68-0	Chloral Betaine	396.65	
2218-94-2	Nitron	460.15	
2218-96-4	2,4-Dinitrobenzenethiol	404.15	
22184-93-6	N-(2-Hydroxyethyl)-3-nitrobenzenesulfonamide	356.15	
22185-75-7	N-[3-(Diethylamino)phenyl]propanamide	351.15	
2219-12-7	2-(1-Methyl-1H-benzimidazol-2-yl)phenol	443.65	
2219-30-9	D-Valine, 3-mercapto-, hydrochloride (1:1)	450.65	
2219-72-9	4-(1,1-Dimethylethyl)-3-methylphenol	385.15	
2219-73-0	4-Ethyl-2-methylphenol		495.15
2219-78-5	2-Ethyl-4,5-dimethylphenol	324.65	
2219-79-6	2-Ethyl-4,6-dimethylphenol		500.65
2219-82-1	2-tert-Butyl-6-methylphenol	304.15	503.15
22190-12-1	2-(Phenylthio)quinoline	321.65	
22195-34-2	Guanadrel sulfate	487.4	
22198-42-1	1,1′-(1,4-Phenylene)bis[1-(4-chlorophenyl)methanone]	529.15	
22198-72-7	3H-Pyrazol-3-one, 4-amino-1,2-dihydro-1,5-dimethyl-2-phenyl-, hydrochloride (1:1)	474.15	
222-78-6	Hexaphene	480.9	
222-93-5	Pentaphene	530.15	
22204-53-1	Naproxen	426.15	
22205-45-4	Copper sulfide (Cu2S)	1373.15	
22205-64-7	Thiocyanic acid, compd. with piperidine (1:1)	368.15	
2221-41-2	Pteleine	407.65	
2221-95-6	Fichtelite	319.15	
2222-33-5	Dibenzo[a,d]cyclohepten-5-one	361.95	
2222298-66-8	2H-2,7a-Methanoindolo[2,3-a]quinolizine-13-carboxylic acid, 3-ethylidene-1,3,4,6,7,12b-hexahydro-, methyl ester, (2R,3E,5S,7aR,12bS,13R)-	384.15	
22224-92-6	Fenamiphos	322.35	
2223-71-4	8-(1,1-Dimethylethyl)-1,4-dioxaspiro[4.5]decane	301.65	
2223-82-7	Neopentyl glycol diacrylate	279.15	
2223-89-4	3-[[2-(2,5-Dioxo-1-pyrrolidinyl)ethyl](3-methylphenyl)amino]propanenitrile	395.65	
22231-61-4	4-(Benzyloxy)-3-methoxyphenethylamine	342.15	
22232-54-8	Carbimazole	396.65	
22232-71-9	Mazindol	471.65	
22235-74-1	(3-endo)-8-(1-Methylethyl)-8-azabicyclo[3.2.1]oct-3-yl α-formylbenzeneacetate	476.15	
22235-81-0	N-Isopropylnoratropine	388.15	
22235-86-5	Benzeneacetic acid, α-(hydroxymethyl)-, (3-endo)-8-(2-propen-1-yl)-8-azabicyclo[3.2.1]oct-3-yl ester, hydrochloride (1:1)	418.15	
22236-45-9	N-(Dimethyloxido-λ4-sulfanylidene)-4-methylbenzenesulfonamide	441.15	
22238-17-1	Tris(1-methylpropyl) borate		468.75
2224-00-2	2-Ethoxy-1-naphthalenecarboxylic acid	420.15	
2224-02-4	1,2-Dithiolane-4-carboxylic acid	350.15	
2224-32-0	2,4-Cyclopentadien-1-ylidenetriphenylphosphorane	524.15	
2224-33-1	Vinyltris(methylethylketoxime)silane	251.15	
2224-52-4	Alanine N-carboxyanhydride	364.15	
22244-22-0	Ethyl 3,4-dihydro-2H-1,4-benzoxazine-2-carboxylate		405.15
22246-18-0	7-Hydroxy-3,4-dihydro-2(1H)-quinolinone	503.15	
22247-66-1	4,4′-[1,5-Pentanediylbis(oxy)]bis[benzoic acid]	559.65	
22248-79-9	Tetrachlorvinphos	370.65	
2225-23-2	Benzenesulfonothioic acid, 4-methyl-, S1,S1′-1,2-ethanediyl ester	349.15	
22251-63-4	5-Ethyl-2-phenyl-1,3-dioxane-5-methanol	340.9	
22252-43-3	7-Aminodeacetoxycephalosporanic acid	502.65	
22252-92-2	α-(Hydroxymethylene)benzeneacetonitrile	430.15	
22254-24-6	Ipratropium bromide	504.15	
22255-22-7	Resveratrol trimethyl ether	329.15	
2226-08-6	3,3-Dimethylbicyclo[2.2.1]heptane-2-ethanol	377.65	
2226-96-2	Tempol	343.65	
22260-51-1	Bromocriptine mesylate	467.15	
22261-94-5	1-Methyl-N-phenyl-4-piperidinamine	355.15	
22264-50-2	1-Aminocyclobutanecarboxylic acid	563.15	
22266-25-7	Cyclohexanepropanoic acid, 2-(dimethylamino)ethyl ester, (2Z)-2-butenedioate (1:1)	402.15	
22268-13-9	Versiconol	538.15	
2227-13-6	Tetrasul	357.65	
2227-17-0	Dienochlor	395.65	
2227-29-4	Chlorobis(1-methylethyl)silane		410.15
2227-64-7	3-Nitrophenacyl bromide	369.15	
2227-79-4	Thiobenzamide	388.65	453.15
22273-09-2	Curanium, 2,16,19,20-tetradehydro-4-methyl-17-oxo-, chloride (1:1), (4α,19E)-	539.15	
22273-65-0	4-(Phenylamino)-2(5H)-furanone	493.65	
22275-34-9	5-Phenylbarbituric acid	538.15	
22280-56-4	2-Chloro-3-methyl-5-nitropyridine	320.65	
22280-60-0	6-Chloro-2-methyl-3-nitropyridine	327.65	
22280-62-2	6-Methyl-5-nitro-2-pyridinamine	461.15	
22282-70-8	2-Fluoro-4-iodopyridine	331.15	
22283-43-8	N-[4-(Dimethylamino)phenyl]thiourea	453.65	
222834-30-2	Ragaglitazar	362.65	
22287-69-0	1-(4-Isocyanophenyl)-2-phenyldiazene	383.15	
22288-78-4	Methyl 3-aminothiophene-2-carboxylate	338.15	374.15
22298-29-9	Betamethasone benzoate	499.65	
2230-70-8	2,4,4-Trimethylcyclohexanone		464.15
2230-87-7	Neomenthyl acetate	310.65	
22302-65-4	N-(5-Hydroxy-1-naphthalenyl)acetamide	447.65	
22303-30-6	2,2,2-Trichloro-N-(3,4-dichlorophenyl)acetamide	396.65	
22303-34-0	2-Chloro-N-(2,4,6-trichlorophenyl)acetamide	481.15	
22303-36-2	2-Chloro-N-(4-methoxyphenyl)acetamide	395.15	
2231-57-4	Thiocarbohydrazide	443.15	
2231-66-5	2,2-Dimethyl-5-(1-methylethylidene)-1,3-dioxane-4,6-dione	401.15	
22316-45-6	Ethyl 3-[(5-chloro-2-nitrophenyl)phenylamino]-3-oxopropanoate	357.15	
22316-47-8	Clobazam	440.15	
22316-59-2	2-Methyl-3-(4-methylphenyl)-4(3H)-quinazolinone	424.15	
2232-08-8	1-(p-Toluenesulfonyl)imidazole	350.65	
22325-27-5	4,6-Dimethyl-2-mercaptopyrimidine	482.15	
22326-31-4	Sulfoisophthalic acid	531.15	
2233-00-3	3,3,3-Trichloro-1-propene	243.15	387.65
2233-18-3	3,5-Dimethyl-4-hydroxybenzaldehyde	387.9	
2233-29-6	2,3,4-Trimethylpyridine		465.65
2233-58-1	Mepregenol acetate	470.65	
22331-70-0	p-Methoxymethamphetamine	448.65	
22332-20-3	Phenol, 2-amino-4-chloro-, 1-(hydrogen sulfate)	542.65	
22339-21-5	(1S,2R,5R)-2,6,6-Trimethylbicyclo[3.1.1]heptan-3-one	253.15	484.15
2234-13-1	Octachloronaphthalene	464.15	
2234-14-2	1-[2,4,6-Tris(1-methylethyl)phenyl]ethanone	360.9	
2234-16-4	2′,4′-Dichloroacetophenone	306.65	
2234-20-0	2,4-Dimethylstyrene	209.9	
2234-26-6	Bicyclo[2.2.1]heptane-2-carbonitrile	316.65	
2234-75-5	1,2,4-Trimethylcyclohexane		413.65
223437-11-4	1-Butyl-1-methylpyrrolidinium bis(trifluoromethylsulfonyl)imide	258.15	
22345-47-7	Tofisopam	429.65	
22346-75-4	4-Pyridinemethanol, 1-oxide	398.15	
223463-13-6	5-Bromo-2-iodopyridine	390.15	
22348-97-6	Methyl 3-oxotetradecanoate	301.85	
22349-03-7	Nonadecylcyclohexane	318.15	693.15
22349-59-3	1,4-Dimethylphenanthrene	350.15	
2235-00-9	Vinylcaprolactam	307.65	
2235-01-0	1,1′-(Dimethoxymethylene)bis[benzene]	380.15	
2235-12-3	1,3,5-Hexatriene	262.65	350.65
2235-15-6	1(2H)-Acenaphthylenone	395.15	
2235-25-8	Ethylmercury phosphate	452.65	
2235-46-3	Diethylacetoacetamide		399.65
2235-83-8	5-Phenyl-2-pentanone	379.65	
2235-90-7	α-Ethyltryptamine	370.15	
22352-19-8	β-D-Glucopyranose, 4-O-(2,3,4,6-tetra-O-acetyl-α-D-glucopyranosyl)-, 1,2,3,6-tetraacetate	432.65	
22353-34-0	5-Chloro-3-pyridinamine	355.15	
22355-34-6	Benzoic acid, compd. with N-cyclohexylcyclohexanamine (1:1)	467.15	
22358-18-5	N,N′-1,3-Propanediylbis[2-chloroacetamide]	401.65	
2236-01-3	Phosphonium, (2-oxopropyl)triphenyl-, bromide (1:1)	494.15	
2236-31-9	Estra-1,3,5(10)-triene-3,16,17-triol, 3,16,17-tripropanoate, (16α,17β)-	373.15	
22364-68-7	2-Methylphenylacetonitrile	415.65	517.15
22368-21-4	Eupatilin	510.15	
22368-82-7	Pithecolobine	341.15	
2237-30-1	3-Aminobenzonitrile	327.45	562.15
2237-36-7	4-Methoxysalicylic acid	430.15	
22371-68-2	7-Nitro-6H-dibenzo[b,d]pyran-6-one	477.15	
22373-78-0	Monensin sodium	541.15	
22374-89-6	1-Methyl-3-phenylpropylamine	416.15	496.15
223749-46-0	N-[(3R,4S)-3,4-Dihydro-3-hydroxy-2,2-dimethyl-6-(4,4,4-trifluorobutoxy)-2H-1-benzopyran-4-yl]-N-methylmethanesulfonamide	451.65	
2238-07-5	2,2′-[Oxybis(methylene)]bis[oxirane]		533.15
22381-53-9	1-[(2-Chloroethyl)sulfonyl]-4-methylbenzene	295.65	
22381-54-0	2-[(4-Methylphenyl)sulfonyl]ethanol	330.15	
22383-85-3	2,3,4-Trimethoxy-6-methylbenzaldehyde	334.35	
22384-24-3	1-Cyclohexyl-5,5-diethyl-2,4,6(1H,3H,5H)-pyrimidinetrione	484.15	
22384-63-0	Pedalitin	573.65	
22385-77-9	1-Bromo-3,5-bis(1,1-dimethylethyl)benzene	336.65	
2239-64-7	2′-Deoxy-6-thioinosine	458.15	
2239-78-3	Propyl palmitate	293.55	
2239-88-5	3,3′-Di-O-methylellagic acid	603.65	
2239-92-1	1-Methylethyl N-(4-chlorophenyl)carbamate	377.15	
22391-06-6	2-(4-Nitrophenyl)-1,3-oxathiolane	351.15	
22393-62-0	Benzene, 1-(2-bromo-1,2-diphenylethenyl)-4-ethyl-, (E)-	386.15	
22393-85-7	Tetradecyl oleate	295.65	
22393-86-8	Cetyl oleate	298.65	
22395-24-0	2-(3,4-Dimethoxyphenyl)-7-methoxy-4H-1-benzopyran-4-one	449.15	
22396-72-1	N,N-Diethyl-3-phenyl-2-propyn-1-amine		410.15
22398-09-0	4-Propylpiperidine		446.15
22398-80-7	Indium phosphide	1343.15	
22399-01-5	1,3-Diethyl 2-[(4-bromophenyl)methylene]propanedioate	315.65	
224-41-9	Dibenz[a,j]anthracene	533.65	
224-42-0	Dibenz[a,j]acridine	489.15	
224-53-3	Dibenz[c,h]acridine	404.15	
224-98-6	Naphtho[2,3-f]quinoline	442.15	
2240-14-4	Fencamfamine hydrochloride	551.65	
2240-21-3	Thiofuradene	498.15	
2240-25-7	5-Bromocytosine	523.15	
2240-47-3	P,P,P-Triphenylphosphine imide	509.15	
2241-90-9	(3β,5α,16α,20S)-14-Methyl-3,20-bis(methylamino)-4-methylene-9,19-cyclopregnan-16-ol	505.15	
22410-97-5	4-Benzoyl-α-methylbenzeneacetic acid	387.15	
22411-53-6	4,6-Disulfo-1,3-benzenedicarboxylic acid	384.15	
22413-78-1	(1α,6β,14α,16β)-4-[[(2-Aminobenzoyl)oxy]methyl]-20-ethyl-1,6,14,16-tetramethoxyaconitane-7,8-diol	427.65	
22414-24-0	2,5-Dihydro-2,5-dimethoxy-2-methylfuran		425.15
22414-77-3	2-Ethyl-3-methylpentanoic acid		492.65
22418-64-0	1,1′-[Methylenebis(oxy)]bis[3-methylbutane]		484.15
2242-98-0	6α-Hydroxycortisol	494.15	
22421-97-2	Methyl 2-chloroisobutyrate	423.15	407.15
22424-58-4	2-Methyl-1-nitro-4-(phenylmethoxy)benzene	346.65	
22425-82-7	Methyl (2α,3β)-2,3-dihydroxyolean-12-en-28-oate	488.15	
22427-39-0	Ginsenoside Rg1	465.65	
2243-27-8	Nonanenitrile	238.95	497.55
2243-32-5	2,3,4,5,6-Pentamethylbenzoic acid	483.65	
2243-33-6	(+)-α-Phellandrene		446.65
2243-35-8	2-(Acetyloxy)-1-phenylethanone	322.15	543.15
2243-42-7	2-Phenoxybenzoic acid	386.15	628.15
2243-43-8	4-Phenoxybutanenitrile	318.65	561.15
2243-47-2	3-Aminobiphenyl	304.4	
2243-53-0	4-Phenyl-3-butenoic acid	360.15	575.15
2243-54-1	2-Naphthyl isocyanate	329.15	
2243-55-2	1-Naphthylhydrazine	390.15	
2243-56-3	1-Naphthylhydrazine hydrochloride	392.15	
2243-61-0	1,4-Naphthalenediamine	393.15	
2243-62-1	1,5-Diaminonaphthalene	463.15	
2243-69-8	N-[4-(Acetyloxy)-2-nitrophenyl]acetamide	420.15	
2243-76-7	Mordant Orange 1	526.65	
2243-78-9	2-Nitrobenzidine	390.15	
2243-80-3	3-Nitrobenzophenone	368.15	
2243-81-4	1-Naphthalenecarboxamide	478.95	
2243-82-5	2-Naphthalenecarboxamide	464.65	
2243-83-6	2-Naphthoyl chloride	324.15	578.15
2243-89-2	2,4,6-Trimethylquinoline	341.15	553.15
2243-90-5	2,6,8-Trimethylquinoline	319.15	546.15
2243-94-9	1,3,5-Trinitronaphthalene	393.15	
2243-98-3	1-Undecyne	248.15	469.15
22431-89-6	3,3,6,6-Tetramethyl-1,2-dioxane	247.15	
224311-49-3	2′-[Bis(1,1-dimethylethyl)phosphino]-N,N-dimethyl[1,1′-biphenyl]-2-amine	385.15	
22432-68-4	4,4,5,5-Tetrachloro-1,3-dioxolan-2-one		438.15
22433-69-8	5-Phenyl-4(3H)-pyrimidinone	446.65	
22439-40-3	Quinothion	315.15	
22439-58-3	2-Acetyldibenzothiophene	384.15	
2244-07-7	Undecanenitrile		526.15
2244-16-8	(+)-Carvone		504.15
22441-21-0	Bis(2,3,4,5,6-pentachlorophenyl) disulfide	510.15	
22441-45-8	Pentachloroarsorane	223.15	
22445-42-7	3,5-Dimethylbenzonitrile	315.65	
22445-43-8	Tetrahydro-2-methyl-2H-1,2-oxazine		367.15
22446-37-3	Methyl (2-hydroxyphenyl)acetate	396.15	
22446-40-8	2-Hydroxybenzeneacetamide	389.65	
2245-30-9	2-(1,1-Dimethylethyl)oxirane		359.15
2245-38-7	2,3,5-Trimethylnaphthalene	298.45	558.15
2245-53-6	2,2′-[1,4-Phenylenebis(oxy)]bis[acetic acid]	524.15	
22451-63-4	(4E)-7-Methyl-3-methylene-4,6-octadien-2-ol	303.15	
22451-73-6	Bulnesol	342.65	
22454-80-4	4-Phenyl-3-[(phenylmethylene)amino]-2(3H)-thiazolethione	417.15	
22457-25-6	6-Octenal, 3,7-dimethyl-, oxime		397.65
22457-89-2	Benfotiamine	438.15	
22459-81-0	N-(4-Bromo-3-chlorophenyl)acetamide	424.55008	
2246-42-6	2-Methoxy-1-naphthalenamine	326.15	
2246-44-8	2-Methyl-1-naphthalenamine	304.15	438.15
22467-31-8	rel-(4S,5R,10R)-10-[(R)-[(2R)-3,6-Dihydro-6-oxo-2H-pyran-2-yl]hydroxymethyl]-4,5,8,9,10,11-hexahydro-4,8-dihydroxy-5-[(1S)-1-hydroxyheptyl]-1H-cyclonona[1,2-c:5,6-c′]difuran-1,3,6-trione	485.15	
2247-91-8	1-Propen-2-ol, 3,3,3-trifluoro-, 2-acetate		359.65
22476-74-0	3,3-Dimethyl-2-piperazinone	407.15	
22476-76-2	3,3-Diphenyl-2-piperazinone	436.15	
22479-95-4	Dimethyl 4-hydroxyphthalate	378.15	
2248-34-2	Benzenediazonium, 4-(4-morpholinyl)-, tetrafluoroborate(1-) (1:1)	415.15	
22480-91-7	2,3,4-Trimethoxybenzeneacetic acid	393.15	
22482-43-5	1,3-Dichloro-2-(2-nitroethenyl)benzene	336.65	
22483-09-6	Aminoacetaldehyde dimethyl acetal		411.15
22489-66-3	(3aR,4S,6aR,9S,9aR,9bR)-Octahydro-4-hydroxy-9-methyl-3,6-bis(methylene)azuleno[4,5-b]furan-2,8(3H,4H)-dione	474.15	
22494-27-5	Flufenisal	408.65	
22494-42-4	Diflunisal	488.65	
22494-47-9	Clobuzarit	427.65	
22499-66-7	Cyclopentanol, 1-propanoate	412.65	
225-11-6	Benz[a]acridine	404.15	
225-51-4	Benz[c]acridine	381.15	
225-83-2	12H-Benzo[a]phenothiazine	409.65	
2250-53-5	5-(Trifluoromethyl)-1H-indazol-3-amine	395.65	
22501-82-2	2-Methyl-4H-pyrazolo[1,5-a]benzimidazole	520.15	
22504-50-3	1,1′-(1,2-Ethanediyl) bis(3-mercaptopropanoate)	421.15	
22504-72-9	N,N′-Dimethylsulfamide	351.65	
22506-53-2	3,9-Dinitrofluoranthene	496.15	
22509-74-6	N-Carbethoxyphthalimide	364.15	
2251-50-5	Pentafluorobenzoyl chloride		431.65
2251-65-2	3-(Trifluoromethyl)benzoyl chloride		460.15
22515-76-0	Ammonium methanesulfonate	472.65	
22518-27-0	4-(4-Chlorophenyl)-2-pyrrolidinone	391.15	
2252-50-8	2-Chloro-5-fluorobenzoic acid	334.15	
2252-51-9	2-Chloro-4-fluorobenzoic acid	454.65	
2252-63-3	1-(4-Fluorophenyl)piperazine	304.65	393.65
2252-83-7	1,2,3,3,3-Pentafluoropropene		253.15
2252-84-8	1,1,1,2,2,3,3-Heptafluoropropane		255.65
22525-43-5	4-[2-(4-Aminophenyl)ethenyl]-N,N-dimethylbenzenamine	445.65	
22527-59-9	1,6-Hexanediamine, hydrochloride (1:?)	521.15	
2253-43-2	Dipropyl dithiophosphate	436.65	
2253-44-3	Phosphorodithioic acid, O,O-dibutyl ester	420.4	
2253-52-3	O,O-Bis(2-methylpropyl) phosphorodithioate	462.65	
2253-57-8	O,O-Dioctyl phosphorodithioate	427.15	
2253-60-3	Phosphorodithioic acid, O,O-diphenyl ester	333.15	
2253-67-0	Bis(2,4-dinitrophenyl) sulfide	465.15	
2253-73-8	Isopropyl isothiocyanate	442.15	411.15
22532-47-4	Benzeneethanol, 4-methyl-, 1-acetate		387.9
22532-68-9	1,2,4-Trichloro-5-(4-nitrophenoxy)benzene	346.15	
22535-49-5	4-(Acryloyloxy)benzophenone	321.65	
22535-53-1	N-(4-Acetylphenyl)-2-propenamide	420.65	
22535-54-2	2-Chloro-1-[(2-chloropropyl)thio]propane	233.15	
22535-90-6	6,6′-(2,4,8,10-Tetraoxaspiro[5.5]undecane-3,9-diyldi-2,1-ethanediyl)bis[1,3,5-triazine-2,4-diamine]	544.15	
2254-94-6	3-Methyl-2(3H)-benzothiazolethione	363.15	608.15
2254-99-1	Pyridinium, 3-(aminocarbonyl)-1-dodecyl-, chloride (1:1)	511.15	
22544-02-1	4-Chloro-1-(2-chlorophenoxy)-2-nitrobenzene	333.15	
22544-07-6	2,4′-Dichloro-4-nitrodiphenyl ether	382.15	
22554-74-1	1,4-Anhydrothreitol	310.15	
22556-08-7	(1S,3R,4R,6R)-3,7,7-Trimethylbicyclo[4.1.0]heptane-3,4-diol	410.15	
22567-21-1	cis-Dihydrocarveol		498.15
2257-09-2	Phenethyl isothiocyanate	477.15	412.65
2257-35-4	2,3,3-Trichloro-2-propenoic acid	349.15	495.15
22570-53-2	Zeorin	526.15	
22572-05-0	Valine, 3-mercapto-, hydrochloride (1:1)	419.65	
22572-33-4	Ethanamine, 2-[(phenylmethyl)thio]-, hydrochloride (1:1)	392.65	
22572-40-3	1-[3-(Dimethylamino)propyl]-3-ethylcarbodiimide methiodide	379.15	
22578-94-5	N,N′-(1,4-Phenylenedicarbonyl)bis[glycine]	564.15	
22581-63-1	Ethane-1,1,2,2-d4, 1,2-dibromo-	403.3	402.65
22582-67-8	1-(1H-Indol-3-yl)-1-butanone	442.15	
22582-68-9	1-(1H-Indol-3-yl)-1-propanone	430.65	
22583-75-1	Benzophenone-d10	442.65	
2259-06-5	Methyl betulinate	497.65	
2259-14-5	(1S,3S)-2,2-Dimethyl-3-(2-methyl-1-propen-1-yl)cyclopropanecarboxylic acid	290.15	
2259-85-0	Decanohydroxamic acid	361.65	
2259-96-3	Cyclothiazide	507.15	
22591-21-5	1,1-Dichloro-3,3-dimethyl-2-butanone	323.65	
22592-15-0	1-Chloro-2-pentyne	468.15	
226-36-8	Dibenz[a,h]acridine	499.15	
226-47-1	Dibenzo[a,h]phenazine	556.15	
226-88-0	Benzo[a]naphthacene	524.65	
2260-00-6	Carbamimidothioic acid, methyl ester, sulfate (1:?)	508.15	
2260-50-6	Acetylcholine iodide	434.15	
22603-53-8	2-Cyano-4,6-dinitroaniline	490.65	
22603-58-3	3-Methyl-2,4,6-trinitrobenzenamine	411.15	
22604-06-4	2-[(4,5-Dihydro-4-oxo-2-thiazolyl)thio]acetic acid	405.65	
22607-75-6	4-Azatricyclo[4.3.1.13,8]undecan-5-one	582.65	
22609-73-0	Niludipine	357.65	
22610-61-3	1-O-Octadecanoyl-sn-glycerol	351.9	
22611-34-3	Chaparrinone	513.15	
22617-04-5	2-[2-(4-Chloro-2-nitrophenyl)diazenyl]-6-(1,1-dimethylethyl)-4-methylphenol	447.65	
22618-22-0	Phenol, 2,3-dimethyl-, 1-acetate		500.15
22618-23-1	Phenol, 3,4-dimethyl-, 1-acetate	295.15	508.15
22619-35-8	Tioclomarol	377.15	
22621-41-6	Benzoic acid, 2-hydroxy-3-nitro-, methyl ester	366.15	
22625-57-6	5-(Chloromethyl)-2-oxazolidinone	378.65	
22632-06-0	Bupicomide	401.15	
22632-59-3	Pentanoic acid, 2-propyl-, methyl ester		444.15
22633-33-6	Methyl 2-hydroxy-3,5-dinitrobenzoate	400.65	
22635-62-7	1-Adamantyl acetate	306.65	
22636-32-4	3-(Pentyloxy)-1,2-propanediol		531.65
2265-64-7	Dexamethasone 21-isonicotinate	524.15	
2265-94-3	1,3-Difluoro-5-nitrobenzene	290.15	449.65
22651-87-2	Cyclohexanecarboxylic anhydride	298.15	434.15
22652-14-8	2,6-Dichloro-4-(trichloromethyl)pyridine	331.15	
22662-39-1	Rafoxanide	442.15	
22663-37-2	N-(Aminocarbonyl)-4-chlorobenzenesulfonamide	454.15	
22663-61-2	2-Methyl-1-dodecanol		378.15
22664-55-7	Metipranolol	379.15	
2268-05-5	1,3-Dichloro-2-fluorobenzene	308.15	441.65
2268-32-8	Ethene, 1-chloro-2-fluoro-, (1E)-		269.15
2268-46-4	1,1,1,3-Tetrachloro-2,2,3,3-tetrafluoropropane		385.4
2269-06-9	4H-Dibenzo[de,g]quinoline, 5,6,6a,7-tetrahydro-1,2,9,10-tetramethoxy-6-methyl-, hydrochloride (1:1), (6aS)-	516.15	
2269-26-3	2-Propyn-1-aminium, N,N-diethyl-3-(9-hydroxy-9H-fluoren-9-yl)-N-methyl-, bromide (1:1)	489.65	
22690-27-3	1,2,3,4,5,6,7,8,9,10-Decahydro-10-methyl-5,9-methanobenzocycloocten-11-one	401.15	
22697-65-0	6-Hydroxykaempferol 3,6-dimethyl ether	490.15	
22698-95-9	2-(2-Chlorophenyl)-1H-isoindole-1,3(2H)-dione	479.15	
2270-20-4	Benzenepentanoic acid	330.65	463.15
2270-40-8	Diacetoxyscirpenol	434.65	
2270-41-9	Scirpentriol	441.65	
2270-61-3	3,4-Dihydro-4-methyl-2H-pyran		374.4
22705-32-4	N,N,1,1-Tetramethylsilanamine		340.15
22705-33-5	N,N,N′,N′,1-Pentamethylsilanediamine		385.65
2271-93-4	N,N′-Hexamethylene-1,6-bis(1-aziridinecarboxamide)	379.15	
22711-21-3	1-(4-Methoxyphenyl)-2-phenyl-1,2-ethanedione	335.65	
22711-23-5	1-(4-Chlorophenyl)-2-phenyl-1,2-ethanedione	346.15	
22717-57-3	Methyl 5-methylsalicylate	272.15	517.65
227197-72-0	6-Chlorobenzoxazole	329.65	
2272-45-9	N-Benzylidene-4-methylaniline	308.15	591.15
22720-75-8	2-Acetylbenzothiophene	361.65	
22726-00-7	3-Bromobenzamide	428.45	