CAS	name	Tm	Tb
14068-64-5	Tetrahydro-4-hydroxy-5,5-dimethyl-6-(1-methylethyl)-2(1H)-pyrimidinone	494.15	
140681-55-6	Selectfluor	443.15	
1407-05-2	Methocidin	538.15	
1407-14-3	Helenine	338.15	
1407-50-7	Exfoliatin	445.15	
1407-73-4	Vitamin T	431.65	
1407-80-3	Nimbidin	368.15	
14070-48-5	N-[3-(2,5-Dihydro-5-thioxo-1H-tetrazol-1-yl)phenyl]acetamide	474.65	
140706-48-5	N-(4-Amino-1,2,5-oxadiazol-3-yl)benzamide	418.65	
14073-00-8	3-Methyl-4-nitroquinoline N-oxide	452.15	
14073-97-3	(-)-Menthone	267.15	480.15
14075-53-7	Potassium tetrafluoroborate	1023.15	
14077-58-8	2-Ethoxyacetyl chloride		398.15
14078-41-2	3,3′-Bis(1,1-dimethylethyl)-5,5′-dimethoxy[1,1′-biphenyl]-2,2′-diol	501.15	
14080-23-0	2-Pyrimidinecarbonitrile	297.15	
14085-34-8	4,5,6,7-Tetrahydro-3H-1,2-benzodithiole-3-thione	365.15	
14087-71-9	3-Oxabicyclo[4.1.0]heptan-2-one, 4,4,7,7-tetramethyl-, (1S-cis)-	356.15	
14088-71-2	Proclonol	333.15	
14088-98-3	1-(3-Chlorophenyl)-2-imidazolidinone	394.15	
140898-91-5	Pentanoic acid, 5-amino-4-oxo-, hexyl ester, hydrochloride (1:1)	419.15	
14090-77-8	Benzil monoxime	410.15	
14090-88-1	4,6-Nonanedione	227.15	377.65
14091-11-3	2-Chlorophenylalanine	490.65	
14091-15-7	4-Bromophenylalanine	531.15	
14093-97-1	2-(2-Furanyl)-5-phenyl-1,3,4-oxadiazole	357.65	
14094-12-3	2-Methyl-2-(methylsulfonyl)propane	351.65	
14096-82-3	(T-4)-Tricarbonylnitrosylcobalt	272.05	323.15
14098-24-9	Benzo-18-crown-6	316.65	
14098-44-3	Benzo-15-crown-5	352.15	
14099-12-8	Mercurate(2-), tetrakis(thiocyanato-κS)-, potassium (1:2), (T-4)-	435.65	
14099-81-1	1,2,3,4-Tetrahydroisoquinoline hydrochloride	468.65	
141-03-7	Dibutyl succinate	244.15	547.65
141-04-8	Diisobutyl adipate	253.15	552.15
141-05-9	Diethyl maleate	264.35	496.15
141-06-0	Propyl pentanoate	202.45	440.65
141-07-1	N,N′-Bis(methoxymethyl)urea	374.15	
141-10-6	Pseudoionone		417.15
141-12-8	Neryl acetate		508.15
141-17-3	1,6-Bis[2-(2-butoxyethoxy)ethyl] hexanedioate	226.15	
141-20-8	Diethylene glycol laurate	290.65	
141-21-9	N-[2-[(2-Hydroxyethyl)amino]ethyl]octadecanamide	368.4	
141-22-0	Ricinoleic acid	278.65	
141-23-1	Methyl 12-hydroxystearate	321.15	
141-24-2	Methyl ricinoleate	268.65	
141-27-5	Geranial		502.15
141-28-6	Diethyl adipate	253.35	518.15
141-30-0	3,6-Dichloropyridazine	340.15	
141-32-2	Butyl acrylate	208.55	420.15
141-43-5	Ethanolamine	283.45	443.95
141-46-8	Glycolaldehyde	370.15	353.15
141-53-7	Sodium formate	526.15	
141-57-1	Propyltrichlorosilane		396.65
141-59-3	2,4,4-Trimethyl-2-pentanethiol	199.15	433.15
141-62-8	Decamethyltetrasiloxane	197.15	467.15
141-63-9	Dodecamethylpentasiloxane	193.15	505.15
141-70-8	2,2,6,6-Tetramethyl-4-methyleneheptane	248.15	451
141-73-1	4-Methoxy-4-methyl-2-pentanol		436.65
141-75-3	Butanoyl chloride	184.15	374.65
141-76-4	3-Iodopropionic acid	354.65	
141-78-6	Ethyl acetate	190.15	350.15
141-79-7	Mesityl oxide	220.25	403.15
141-82-2	Malonic acid	408.15	488.15
141-83-3	Guanylurea	378.15	
141-84-4	Rhodanine	443.15	
141-86-6	2,6-Diaminopyridine	394.65	558.15
141-91-3	2,6-Dimethylmorpholine	185.15	419.75
141-93-5	1,3-Diethylbenzene	189.25	454.25
141-94-6	Hexetidine		433.15
141-97-9	Ethyl acetoacetate	228.15	453.95
14101-04-3	Frangulin B	469.15	
14103-68-5	2-(3-Pentadecylphenoxy)acetic acid	372.65	
14107-37-0	Alphadolone	438.15	
14109-72-9	1-(Methylthio)-2-propanone		425.9
14110-64-6	Cytochalasin A	459.15	
14110-71-5	1H-Isoindol-1-one, octahydro-6,7a-dihydroxy-4-methyl-5-methylene-7-[4-methyl-7-(tetrahydro-5-oxo-2-furanyl)-1-heptenyl]-3-(phenylmethyl)-	466.15	
141112-29-0	Isoxaflutole	413.15	
14112-98-2	7-Oxooctanoic acid	302.65	
14113-01-0	1-Ethyl octanedioate	298.15	
14114-46-6	3,7-Dimethyl-1-propargylxanthine	480.15	
14117-96-5	Distearyl phthalate	329.15	
14118-16-2	N1,N1,N4,N4-Tetraphenyl-1,4-benzenediamine	473.15	
14121-36-9	2,3,4,6-Tetrachloropyridine	310.9	521.9
14126-32-0	(T-4)-Dibromobis(triphenylphosphine)cobalt	423.15	
14128-84-8	Bis(1-phenyl-1,3-butanedionato-κO1,κO3)copper	467.15	
14130-06-4	Docosylamine	327.15	
14132-84-4	2,4-Dihydro-4-phenyl-5-(phenylamino)-3H-1,2,4-triazole-3-thione	480.15	
14134-79-3	Benzoxazolium, 3-methyl-2-[3-(3-methyl-2(3H)-benzoxazolylidene)-1-propen-1-yl]-, iodide (1:1)	528.15	
14140-15-9	4-(2-Bromoethyl)phenol	363.15	
14140-18-2	Trachelanthamine	364.65	
14143-60-3	4-Amino-3,5,6-trichloro-2-pyridinecarbonitrile	513.65	
14147-07-0	N,N-Bis(phenylmethyl)-4-pyridinemethanamine	355.65	
14148-99-3	Benzeneethanamine, N,N-dimethyl-α-phenyl-, hydrochloride (1:1), (αR)-	491.65	
14149-31-6	3-Phenylglutarimide	446.65	
14149-34-9	3-Phenyl-2,6-piperidinedione	416.65	
14149-43-0	3-Azoniabicyclo[3.2.1]octane, 1,3,8,8-tetramethyl-3-[3-(trimethylammonio)propyl]-, methyl sulfate (1:2)	465.65	
1415-73-2	Barbaloin	421.65	
14150-64-2	2-Hydrazinylacetic acid	439.65	
14150-71-1	Thiocyanic acid, 1,2-ethenediyl ester	370.65	
14152-56-8	2-Quinoxalineacetic acid, 3,4-dihydro-3-oxo-, ethyl ester	483.15	
141573-95-7	1H-Pyrazole-4-carboxylic acid, 3-(difluoromethyl)-1-methyl-, ethyl ester	331.65	
14159-48-9	2-Propanesulfonic acid	236.15	432.15
14159-57-0	α-Phenyl-2-pyridinemethanol	355.15	
14159-61-6	3-(2-Methylpropyl)pyridine	386.65	
14161-11-6	3,4,5-Trichloropyridazine	330.15	
14165-55-0	Germanium tetraethoxide	201.15	458.65
14166-21-3	trans-1,2-Cyclohexanedicarboxylic anhydride	492.15	
14167-59-0	Tetratriacontane	345.75	756.15
14167-65-8	2-Methyltetratriacontane	341.35	
14168-01-5	Dilor	408.15	
14168-44-6	N,N′-Dinitromethanediamine	372.15	
14173-30-9	2-Pyridinemethanol, 3-hydroxy-, hydrochloride (1:1)	479.15	
14173-40-1	Phenylalanine, 4-chloro-, methyl ester, hydrochloride (1:1)	458.65	
14173-61-6	Methanol, [(nitroimino)bis[methylene(nitroimino)]]bis-, dinitrate (ester)	426.65	
14173-62-7	8-Oxa-2,4,6-triazadecan-1-ol, 2,4,6-trinitro-9-oxo-, 1-acetate	428.65	
14174-09-5	Dibenzo-24-crown-8	377.15	
14176-13-7	2-Hydroxyhexacosanoic acid	377.15	
14176-47-7	3,4-Thiophenediol, tetrahydro-, 1,1-dioxide, (3R,4R)-rel-	432.65	
14177-51-6	Nickel tungsten oxide (NiWO4)	1693.15	
14177-55-0	Molybdenum nickel oxide (MoNiO4)	1583.15	
14177-81-2	Ethanaminium, 2-(diphenylmethoxy)-N,N,N-trimethyl-, iodide (1:1)	465.65	
141776-32-1	Sulfosulfuron	474.55	
14178-15-5	2-Phenoxy-3-pyridinecarbonitrile	382.65	
14184-98-6	2,2′,4,4′,6,6′-Hexanitro[1,1′-biphenyl]-3,3′-diol	584.65	
14185-05-8	Benzenemethanol, α-(2-amino-1-methylethyl)-α-phenyl-, hydrochloride	486.15	
14186-60-8	1,4-Dimethyl 2-methyl-1,4-benzenedicarboxylate	348.65	
14187-31-6	1,1′-Diethyl-2,2′-dicarbocyanine iodide	543.15	
14187-32-7	Dibenzo-18-crown-6	436.15	
14188-94-4	1-(1-Oxido-3-pyridinyl)ethanone	415.15	
14191-22-1	2-Nitrocarbazole	438.65	
14191-92-5	Testosterone, cyclohexanecarboxylate	399.65	
14191-95-8	4-Hydroxybenzyl cyanide	340.65	
14192-12-2	2,5-Diiodobenzoic acid	456.15	
14193-38-5	(±)-trans-1,2-Dithiane-4,5-diol	402.65	
14197-60-5	Ginsenoside Rg3	419.65	
14198-24-4	1,4-Dimethoxy-2-[(1E)-2-(4-nitrophenyl)ethenyl]benzene	389.9	
14198-28-8	(2R,6R,11R)-1,2,3,4,5,6-Hexahydro-6,11-dimethyl-3-(2-propen-1-yl)-2,6-methano-3-benzazocin-8-ol	411.65	
14199-15-6	Methyl (4-hydroxyphenyl)acetate	454.65	
14199-83-8	1-Deoxy-1-nitro-D-mannitol	407.9	
14199-88-3	1-Deoxy-1-nitro-D-glucitol	380.65	
142-04-1	Benzenamine hydrochloride (1:1)	469.15	518.15
142-08-5	2-Pyridone	380.95	553.15
142-09-6	Hexyl methacrylate		435.15
142-16-5	Bis(2-ethylhexyl) maleate	213.15	437.15
142-18-7	1-Monolaurin	325.15	
142-19-8	Allyl heptanoate		482.65
142-22-3	Diallyl diglycol carbonate	269.15	
142-25-6	N,N,N′-Trimethylethylenediamine		390.15
142-26-7	N-(2-Hydroxyethyl)acetamide	337.15	
142-28-9	1,3-Dichloropropane	173.65	393.55
142-29-0	Cyclopentene	138.05	317.35
142-30-3	2,5-Dimethyl-3-hexyne-2,5-diol	368.15	
142-45-0	2-Butynedioic acid	466.65	
142-46-1	Dithiourea	506.15	
142-48-3	Stearoyl Sarcosine	338.9	
142-50-7	(+)-Nerolidol		549.15
142-54-1	Lauric acid monoisopropanolamide	338.65	
142-57-4	Pentyl (9Z)-9-octadecenoate	241.25	
142-58-5	N-Myristoylethanolamine	366.65	
142-59-6	DSE	351.15	
142-60-9	Octyl propionate	230.55	501.15
142-61-0	Hexanoyl chloride	186.15	426.15
142-62-1	Hexanoic acid	269.75	478.95
142-63-2	Piperazine, hexahydrate	317.15	
142-64-3	Piperazine, hydrochloride (1:2)	583.15	
142-65-4	1-Pentanamine, hydrochloride (1:1)	500.65	
142-68-7	Tetrahydropyran	223.95	361.15
142-71-2	Cupric acetate	505.15	
142-72-3	Magnesium acetate	596.15	
142-73-4	Iminodiacetic acid	520.65	
142-75-6	2-Hydroxypropyl octadecanoate	327.15	
142-77-8	Butyl oleate	246.75	
142-78-9	Lauric acid monoethanolamide	335.15	
142-79-0	Heptanedioyl dichloride	377.15	
142-81-4	Hexylammonium chloride	491.65	
142-82-5	Heptane	182.15	371.15
142-84-7	Dipropylamine	210.15	382.45
142-86-9	Dodecanamide, N-[2-(sulfooxy)ethyl]-, sodium salt (1:1)	406.65	
142-88-1	Piperazine adipate	529.65	
142-90-5	Lauryl methacrylate	253.15	
142-91-6	Isopropyl palmitate	286.65	433.15
142-92-7	Hexyl acetate	192.25	444.65
142-94-9	2-Bromooctadecanoic acid	331.15	
142-95-0	Octylammonium chloride	470.65	
142-96-1	Butyl ether	177.95	413.35
142-98-3	Decyl sulfate	310.85	
1420-04-8	Niclosamide ethanolamine salt	489.15	
1420-06-0	Trifenmorph	448.15	
1420-07-1	Dinoterb	399.15	
1420-08-2	6,7-Dihydro-1,2,3,10-tetramethoxybenzo[a]heptalen-9(5H)-one	449.15	
1420-27-5	Benzenemethanol, 4-hydroxy-3-methoxy-α-[[(1-methylethyl)amino]methyl]-, hydrochloride (1:1)	274.67	
1420-40-2	1,10-Decanediaminium, N1,N1,N1,N10,N10,N10-hexamethyl-, iodide (1:2)	504.15	
1420-55-9	Thiethylperazine	336.15	
1420-88-8	Ethanethioic acid, S-[2-(acetylamino)ethyl] ester	300.15	
14202-13-2	3-Methyltricyclo[3.3.1.13,7]decane-1-acetic acid	380.15	
14205-39-1	Methyl 3-amino-2-butenoate	325.15	
14205-65-3	Ethyl 8-hydroxy-1,3-dioxolo[4,5-g]quinoline-7-carboxylate	551.65	
14206-01-0	Triacontyl hexacosanoate	358.65	
14208-07-2	Pyridinium, 1,1′-(1,3-propanediyl)bis-, bromide (1:2)	472.65	
14208-08-3	Pyridinium, 1,1′-(1,4-butanediyl)bis-, bromide (1:2)	521.65	
14208-10-7	p-Xylene bis(pyridinium bromide)	569.65	
14209-41-7	Indene-3-carboxylic acid	431.65	
1421-07-4	5-Ethyl-5-(3-hydroxy-3-methylbutyl)-2,4,6(1H,3H,5H)-pyrimidinetrione	460.65	
1421-14-3	Propanidid		484.15
1421-23-4	Imidodicarbonimidic diamide, N-(phenylmethyl)-, hydrochloride (1:1)	469.65	
1421-49-4	3,5-Di-tert-butyl-4-hydroxybenzoic acid	491.65	
1421-63-2	2′,4′,5′-Trihydroxybutyrophenone	424.15	
1421-68-7	Methanesulfonamide, N-[3-[1-hydroxy-2-(methylamino)ethyl]phenyl]-, methanesulfonate (1:1)	481.15	
1421-69-8	N-[(Phenylmethoxy)carbonyl]glycyl-L-leucine	372.65	
1421-78-9	5,6-Dihydrobenz[a]anthracene-5,6-diol	476.15	
1421-89-2	Dimethylaminoethyl acetate	402.65	
14210-25-4	5-Chloro-1-phenyl-1H-tetrazole	396.15	
14213-16-2	5-Methyl-1-phenyl-1H-tetrazole	370.65	
14214-24-5	Benzoic acid, 2-hydroxy-, 1,1′-(dibutylstannylene) ester	343.65	
14214-69-8	4,6-Cholestadien-3β-ol	399.65	
14216-03-6	Hederacoside C	499.65	
14216-22-9	N-Ethylglucamine	410.15	
14219-90-0	Thallium, (2,4-pentanedionato-κO,κO′)-	433.15	
1422-07-7	Codeine hydrochloride	553.15	
1422-26-0	9-Oxodecanoic acid	321.15	
1422-53-3	2-Bromo-4-fluorotoluene		444.15
14220-64-5	Bis(benzonitrile)dichloropalladium	402.65	
14221-00-2	(T-4)-Tetrakis(triphenyl phosphite-κP)nickel	420.15	
14221-01-3	Tetrakis(triphenylphosphine)palladium	373.15	
14221-02-4	Tetrakis(triphenylphosphine)platinum	395.15	
14222-60-7	Prothionamide	409.85	
14227-17-9	2,4,6-Trimethoxyaniline	303.15	
14227-95-3	β-Oxo-1-pyrrolidinepropanenitrile	347.65	
1423-27-4	2-Trifluoromethylphenylboronic acid	379.65	
1423-60-5	3-Butyn-2-one		357.15
1423-97-8	β-Dihydroequilenin	483.65	
14230-52-5	2-(3-Pentadecylphenoxy)butanoic acid	355.65	
142326-59-8	7-Chloro-4-hydroxy-3-(3-phenoxyphenyl)-2(1H)-quinolinone	581.15	
14233-37-5	1,4-Bis[(1-methylethyl)amino]-9,10-anthracenedione	450.15	
14235-45-1	4-(1-Methylethyl)-1,3-benzenediamine	305.15	
14235-81-5	4-Ethynylaniline	362.15	
14239-24-8	Benzenediazonium, 4-methoxy-2-nitro-, (T-4)-tetrachlorozincate(2-) (2:1)	392.15	
14239-68-0	Cadmium diethyldithiocarbamate	345.15	
1424-00-6	1α-Methyl-5α-androstan-17β-ol-3-one	477.15	
1424-14-2	Dibenzylthiourea	418.65	
1424-22-2	1-Cyclohexen-1-ol, 1-acetate		453.65
1424-48-2	3-[(4-Methylphenyl)sulfonyl]-2-propenenitrile	404.65	
1424-66-4	2-Chloro-4-(dimethylamino)benzaldehyde	350.65	
14243-64-2	Chloro(triphenylphosphine)gold	511.15	
142459-58-3	Flufenacet	349.15	
14246-53-8	Capryloylglycine	375.65	
14248-66-9	Pyridine, 3,5-dimethyl-4-nitro-, 1-oxide	447.65	
1425-10-1	Nandrolone acetate	365.15	
14250-79-4	2,2-Dimethyl-1-heptanol		361.65
14250-88-5	2,2-Dimethylpentanal		399.65
14250-95-4	3-(Dimethoxymethyl)heptane		456.15
14251-72-0	Butyltrimethylammonium chloride	497	
14251-76-4	1-Octanaminium, N,N,N-trimethyl-, iodide (1:1)	414.15	
14252-03-0	3-Nitro-9-acridinamine	566.15	
14255-87-9	Parbendazole	499.15	
14255-88-0	Fenazaflor	376.15	
142564-62-3	(2E)-2-[1-(2-Pyridinyl)ethylidene]hydrazinecarbothioamide	548.15	
14259-45-1	Asperuloside	404.65	
14259-46-2	Narirutin	453.15	
14259-47-3	Didymin	484.15	
14261-75-7	Cloforex	325.9	362.15
14263-89-9	Benzenediazonium, 4-chloro-2-nitro-, (T-4)-tetrachlorozincate(2-) (2:1)	414.65	
14264-16-5	Bis(triphenylphosphine)nickel dichloride	521.65	
14267-17-5	Bis(diethyldithiocarbamato)nickel	532.15	
14267-92-6	5-Chloro-1-pentyne	393.15	
14268-66-7	Benzodioxol-5-amine	318.15	
1427-07-2	2-Fluoro-1-methyl-4-nitrobenzene	307.65	
142720-24-9	2-(4-Fluorophenyl)-N,N-dihexyl-1H-indole-3-acetamide	369.65	
14275-57-1	(8Z)-5,5,12,12-Tetrabutyl-7,10-dioxo-6,11-dioxa-5,12-distannahexadec-8-ene	523.9	
14276-80-3	2-Ethyloctadecanoic acid	321.15	
14277-00-0	N-Phenylethanimidamide	467.65	
14277-14-6	4,8-Dodecadienedioic acid	436.65	
14277-16-8	4-Octenedioic acid	449.15	
14277-97-5	(-)-Domoic acid	515.65	
142782-22-7	1H-1,2,4-Triazole-3-carboxylic acid, 5-amino-, methyl ester, hydrochloride (1:1)	453.15	
1428-67-7	2,3-Bis(4-hydroxyphenyl)propionitrile	471.65	
1428-95-1	Hexamethylene amiloride	497.65	
14280-30-9	Hydroxide	448.65	
14280-53-6	Indium bromide (InBr)	563.15	
14282-76-9	2-Bromo-3-methylthiophene		449.15
14283-07-9	Lithium tetrafluoroborate	390.15	
14284-89-0	Tris(acetylacetonato)manganese	428.15	
14284-90-3	Molybdenum acetylacetonate	501.65	
14284-92-5	Rhodium acetylacetonate	540.15	
14284-93-6	Tris(acetylacetonato)ruthenium	413.15	
142844-00-6	Refractories, fibers, aluminosilicate	2143.15	
14286-84-1	1-Propanamine, N,N-dimethyl-3-[[1-(phenylmethyl)cycloheptyl]oxy]-, (2E)-2-butenedioate (1:1)	405.15	
14287-04-8	Ammonium butyrate	350.65	
14287-61-7	2,3-Dimethylbutanoic acid	271.65	464.85
14287-62-8	1,1′-(Phenylphosphinidene)bis[piperidine]	355.65	
14289-24-8	1,1′-[5-nitro-2-thienyl)methylene] diacetate	345.65	
1429-50-1	Ethylenediaminetetra(methylenephosphonic acid)	520.15	
1429-59-0	1,1′-[(1R)-1-(Hydroxymethyl)-1,2-ethanediyl] dioctadecanoate	349.65	
14290-86-9	trans-4-Fluorocinnamic acid	475.15	
14292-35-4	1,2-Ethanediamine, N-[(4-bromophenyl)methyl]-N′-ethyl-N′-methyl-N-2-pyridinyl-, (2Z)-2-butenedioate (1:1)	370.15	
14293-44-8	Xipamide	529.15	
14295-46-6	1-[2-(6-Methyl-2-benzothiazolyl)diazenyl]-2-naphthalenol	365.15	
14297-59-7	1,4-Diethyl 2,5-bis(phenylamino)-1,4-benzenedicarboxylate	416.15	
14297-87-1	Benzylmorphine	405.15	
14298-32-9	Neodymium phosphate	2373.15	
143-02-2	Hexadecyl sulfate	339.4	
143-03-3	Octadecyl sulfate	324.65	
143-06-6	Hexamethylenediamine carbamate	423.15	
143-07-7	Lauric acid	317.35	572.05
143-08-8	1-Nonanol	268.15	486.52
143-10-2	1-Decanethiol	247.15	514.15
143-13-5	Nonyl acetate	247.15	483.15
143-15-7	1-Bromododecane	263.65	549.15
143-16-8	Dihexylamine	260.05	509.15
143-19-1	Sodium oleate	506.65	
143-22-6	Triethylene glycol monobutyl ether	238.15	551.15
143-23-7	Bis(hexamethylene)triamine	306.15	493.15
143-24-8	Tetraglyme		548.45
143-25-9	11-Octadecenoic acid	311.55	
143-26-0	4-(Tetradecylamino)-2-butanol	333.15	
143-27-1	Hexadecylamine	319.95	595.65
143-28-2	Oleyl alcohol	289.15	606.15
143-33-9	Sodium cyanide	836.15	1769.15
143-36-2	Mercury, iodomethyl-	414.15	
143-50-0	Chlordecone	623.15	
143-52-2	Metopon	517.15	
143-57-7	Protoveratrine A	539.15	
143-62-4	Digitoxigenin	526.15	
143-66-8	Sodium tetraphenylborate	448.15	
143-67-9	Vinblastine sulfate	557.65	
143-70-4	Isomorphine	524.65	
143-71-5	Hydrocodone bitartrate	396.15	
143-81-7	Butabarbital sodium	439.65	
1430-97-3	2-Methyl-9H-fluorene	377.15	591.25
14301-31-6	2-Chloro-N-[2-(3,4-dimethoxyphenyl)ethyl]acetamide	369.15	
14301-36-1	N-[2-(3,4-Dimethoxyphenyl)ethyl]formamide	307.65	
14303-70-9	Propyl myristate		491.15
14304-30-4	1-Bromo-2-decene		392.65
14305-08-9	4,5-Dibromo-2-phenyl-3(2H)-pyridazinone	415.65	
14307-35-8	Lithium chromate	348.15	
14307-88-1	Propanamide, N,N′-(dithiodi-2,1-ethanediyl)bis[3-amino-, dihydrochloride	492.15	
14307-90-5	N,N-Diethyl-2-(phenylamino)acetamide	311.15	
14308-65-7	N-Methyl-3-(5-nitro-2-furanyl)-2-propenamide	468.65	
14309-25-2	1,1′,1′′-(Azidomethylidyne)tris[benzene]	337.15	
14309-41-2	Octyl 4-aminobenzoate	343.15	
14309-42-3	Benzoic acid, 4-nitro-, pentyl ester	284.35	
14309-92-3	N-(4-Nitrophenyl)benzenemethanamine	420.15	
1431-39-6	Dansylamide	492.65	
14310-21-5	1-Methoxy-4-(2-phenylethyl)benzene	333.65	
14314-78-4	2-Propenoic acid, 2-methyl-, 2-(diethylamino)ethyl ester, hydrochloride (1:1)	375.8	
14315-14-1	5-Methylbenzo[b]thiophene	293.65	
14315-16-3	3-Amino-N-phenylbenzamide	396.65	
14315-97-0	1,1,3-Trimethoxypropane		318.65
14316-06-4	D-Alanine, methyl ester, hydrochloride	369.15	
14318-35-5	3,5-Diethyltetrahydro-2H-1,3,5-thiadiazine-2-thione	347.65	
14319-13-2	(OC-6-11)-Tris(2,2,6,6-tetramethyl-3,5-heptanedionato-κO3,κO5)lanthanum	457.15	
1432-43-5	3-Acetyl-2-oxazolidinone	337.15	
14320-37-7	3-Cyclopenten-1-one	338.6	407.15
14321-27-8	Ethylbenzylamine	354.65	467.15
14324-55-1	Zinc diethyldithiocarbamate	447.15	
14325-36-1	N5-(Aminocarbonyl)-N2-benzoyl-L-ornithine methyl ester	422.15	
14331-22-7	1,2-Dihydro-1-(1-naphthalenyl)-5H-tetrazole-5-thione	430.65	
143314-16-3	1-Ethyl-3-methylimidazolium tetrafluoroborate	286.15	
14333-96-1	N-Hexyl-9H-purin-6-amine	450.65	
14334-40-8	Pramiverine	343.15	
14334-41-9	Cyclohexanamine, N-(1-methylethyl)-4,4-diphenyl-, hydrochloride (1:1)	503.15	
14335-33-2	Phosphoric acid-d3	319.15	
14335-40-1	Phosphorous chloride difluoride	108.35	225.85
143360-01-4	N-(4-Bromo-2-methoxyphenyl)acetamide	432.65	
14337-12-3	Tetrachloroaurate	443.9	
14337-53-2	5-Br-PADAP	430.65	
14338-32-0	2-Chloro-1-methylpyridinium iodide	473.15	
14339-66-3	2-Chloro-10-[3-(dimethylamino)propyl]-10H-phenothiazine-3,7-diol	419.15	
143390-89-0	Kresoxim-methyl	372.6	
1434-54-4	Pregnenolone 16α-carbonitrile	499.65	
1434-68-0	17α-Pregn-4-ene-16β-carboxamide, 3,20-dioxo-	533.15	
1434-85-1	17β-Hydroxy-5α-estran-3-one	404.15	
14343-69-2	Azide	392.65	
14343-71-6	2-Oxazolidinone, 5-(4-morpholinylmethyl)-3-[[(5-nitro-2-furanyl)methylene]amino]-, (2R,3R)-2,3-dihydroxybutanedioate (1:1)	446.15	
14345-96-1	3-(5-Chloro-2-thienyl)-5-methyl-4-isoxazolecarboxylic acid	431.65	
14345-97-2	2-Chloro-3-methylthiophene	428.15	
14346-01-1	3-(2,5-Dichloro-3-thienyl)-5-methyl-4-isoxazolecarboxylic acid	448.15	
14346-24-8	5,6,7,8-Tetrahydro[1]benzothieno[2,3-d]pyrimidin-4(1H)-one	533.15	
14346-25-9	1,5,6,7-Tetrahydro-4H-cyclopenta[4,5]thieno[2,3-d]pyrimidin-4-one	508.15	
14348-41-5	3-Bromo-4-hydroxybenzoic acid	450.15	
14348-75-5	2,7-Dibromo-9-fluorenone	483.15	
1435-44-5	1-Chloro-2,4-difluorobenzene	400.15	
1435-46-7	1,3-Dichloro-5-fluorobenzene		433.15
1435-48-9	2,4-Dichlorofluorobenzene	259.65	446.15
1435-49-0	1,2-Dichloro-4-fluorobenzene		444.15
1435-50-3	2-Bromo-1,4-dichlorobenzene	308.15	499.15
1435-51-4	1,3-Dibromo-5-fluorobenzene		478.15
1435-53-6	2,4-Dibromo-1-fluorobenzene	342.15	
1435-55-8	Hydroquinidine	441.65	
1435-60-5	4-Hydroxy-4′-nitroazobenzene	489.15	
1435-71-8	4-Methyl-2-[2-(2-nitrophenyl)diazenyl]phenol	382.15	
1435-88-7	3-Methyl-4-(2-phenyldiazenyl)phenol	374.65	
14351-40-7	Stearamide MEA Stearate	366.15	
14351-66-7	Sodium abietate	573.15	
14352-51-3	3-Amino-1H-isoindol-1-one	478.15	
14357-78-9	Diprenorphine	458.15	
14358-76-0	Reserpilinic acid	529.15	