CAS	name	Tm	Tb
107-49-3	Tetraethyl pyrophosphate	483.65	
107-50-6	Tetradecamethylcycloheptasiloxane	247.15	427.15
107-51-7	Octamethyltrisiloxane	193.15	426.15
107-52-8	Tetradecamethylhexasiloxane	214.15	518.65
107-53-9	1,1,1,3,3,5,5,7,7,9,9,11,11,13,13,15,15,17,17,19,19,21,21,21-Tetracosamethylundecasiloxane		595.95
107-54-0	3,5-Dimethyl-1-hexyn-3-ol		421.15
107-55-1	O,O-Bis(1-methylpropyl) phosphorodithioate	407.15	
107-56-2	O,O-Bis(1-methylethyl) phosphorodithioate	466.15	
107-58-4	tert-Butylacrylamide	399.15	
107-59-5	tert-Butyl chloroacetate		423.15
107-61-9	1,4-Oxathiane, 4,4-dioxide	402.65	
107-64-2	Distearyldimethylammonium chloride	340.15	
107-66-4	Dibutyl phosphate	260.15	408.15
107-68-6	Methyltaurine	514.65	
107-69-7	Carbamic acid, 2,2,2-trichloroethyl ester	337.15	
107-70-0	4-Methoxy-4-methyl-2-pentanone		428.15
107-72-2	Trichloropentylsilane		445.15
107-73-3	Phosphocholine	382.65	
107-74-4	3,7-Dimethyl-1,7-octanediol		538.15
107-75-5	Hydroxycitronellal	295.65	
107-80-2	1,3-Dibromobutane		447.15
107-81-3	2-Bromopentane	177.65	390.55
107-82-4	1-Bromo-3-methylbutane	161.15	393.55
107-83-5	2-Methylpentane	119.45	333.45
107-84-6	1-Chloro-3-methylbutane	168.75	372.05
107-85-7	Isoamylamine	404.65	369.15
107-86-8	3-Methyl-2-butenal	253.15	409.15
107-87-9	2-Pentanone	195.15	374.85
107-88-0	1,3-Butanediol		480.65
107-89-1	3-Hydroxybutanal		356.15
107-91-5	Cyanoacetamide	392.65	
107-92-6	Butyric acid	265.25	438.65
107-93-7	trans-Crotonic acid	345.15	457.85
107-94-8	3-Chloropropionic acid	314.15	473.15
107-95-9	β-Alanine	473.15	
107-96-0	3-Mercaptopropionic acid	289.95	384.15
107-97-1	Sarcosine	485.65	
107-98-2	1-Methoxy-2-propanol	177.15	393.25
1070-08-2	(2R)-2,3-Bis(hexadecyloxy)-1-propanol	310.65	
1070-11-7	Ethambutol hydrochloride	472.55	
1070-13-9	2-Methylenepentanal		390.15
1070-34-4	Monoethyl succinate	281.15	
1070-54-8	16-Hentriacontanol	360.75	
1070-62-8	Monoethyl glutarate	280.65	
1070-71-9	2-Propynenitrile	278.15	315.65
1070-78-6	1,1,1,3-Tetrachloropropane		430.15
1070-83-3	3,3-Dimethylbutanoic acid	279.65	463.15
1070-89-9	Sodium bis(trimethylsilyl)amide	439.15	
107007-99-8	Granisetron hydrochloride	564.15	
107036-57-7	Cytidine, 5-bromo-2′,3′-dideoxy-	435.9	
107089-78-1	4H-1,2,4-Benzothiadiazine, 3-chloro-4-phenyl-, 1,1-dioxide	504.15	
107097-80-3	Loxiglumide	387.15	
1071-21-2	Cyanoethylmethyldichlorosilane		489.15
1071-22-3	3-(Trichlorosilyl)propanenitrile	305.65	
1071-23-4	Phosphoethanolamine	507.15	
1071-26-7	2,2-Dimethylheptane	160.15	405.85
1071-28-9	1-Propanol, 3-amino-, 1-(dihydrogen phosphate)	451.15	
1071-37-0	Carbamimidothioic acid, ethyl ester, hydrobromide (1:1)	359.15	
1071-46-1	Monoethyl malonate	381.65	
1071-73-4	5-Hydroxy-2-pentanone		482.15
1071-81-4	2,2,5,5-Tetramethylhexane	260.55	410.55
1071-83-6	Glyphosate	503.15	
1071-93-8	Adipic dihydrazide	444.15	
1071-94-9	(5E)-5-Hepten-2-one		423.15
1071-98-3	2-Butynedinitrile	293.65	349.65
107133-84-6	(1S,2S,4R)-2-Hydroxy-α,α,4-trimethylcyclohexanemethanol	358.65	
1072-03-3	Ethanol, 2-(ethylamino)-, 1-(hydrogen sulfate)	477.65	
1072-14-6	Hexylsilane		387.65
1072-16-8	2,7-Dimethyloctane	218.25	433.05
1072-20-4	2,4,6-Octatriyne	401.15	
1072-21-5	Hexanedial	265.15	
1072-35-1	Octadecanoic acid, lead(2+) salt (2:1)	398.15	
1072-43-1	Propylene sulfide	182.15	345.65
1072-44-2	N-Methylaziridine		300.65
1072-52-2	1-Aziridineethanol		428.15
1072-53-3	1,3,2-Dioxathiolane, 2,2-dioxide	372.15	
1072-55-5	2,2-Dimethyl-1,3,2-dithiastannolane	356.15	
1072-62-4	2-Ethylimidazole	335.65	545.65
1072-67-9	3-Amino-5-methylisoxazole	334.65	
1072-70-4	5-Methyl-2-oxazolidinone	294.15	
1072-71-5	2,5-Dimercapto-1,3,4-thiadiazole	443.15	
1072-72-6	Tetrahydrothiopyran-4-one	338.65	
1072-83-9	2-Acetylpyrrole	363.15	493.15
1072-84-0	1H-Imidazole-5-carboxylic acid	548.15	
1072-97-5	2-Amino-5-bromopyridine	410.15	
1072-98-6	2-Amino-5-chloropyridine	410.15	
107263-95-6	Pyridinium, 1-fluoro-, 1,1,1-trifluoromethanesulfonate (1:1)	459.15	
1073-05-8	1,3,2-Dioxathiane, 2,2-dioxide	336.15	
1073-06-9	1-Bromo-3-fluorobenzene		423.15
1073-23-0	2,6-Dimethylpyridine N-oxide	368.65	390.15
1073-26-3	2-Propionylpyrrole	325.15	501.65
1073-29-6	2-(Methylthio)phenol	357.65	
1073-62-7	Hydrazine, (phenylmethyl)-, hydrochloride (1:1)	421.15	
1073-67-2	4-Chlorostyrene	257.25	465.15
1073-69-4	(4-Chlorophenyl)hydrazine	358.15	
1073-70-7	Hydrazine, (4-chlorophenyl)-, hydrochloride (1:1)	351.65	
1073-72-9	4-(Methylthio)phenol	356.65	386.15
1073-75-2	2-(1,3,2-Dioxaphospholan-2-yloxy)ethanol	323.15	
1073-93-4	N-Isopropylmaleimide	356.15	
1073-96-7	3,5-Dihydroxy-2-methyl-4H-pyran-4-one	431.15	
1074-11-9	1,2-Dichloro-1-phenylethane		506.65
1074-12-0	Phenylglyoxal	396.15	
1074-17-5	1-Methyl-2-propylbenzene	212.85	458.15
1074-24-4	2,5-Dibromo-p-xylene	346.9	
1074-29-9	Trichlorophenylgermane		500.15
1074-36-8	4-Mercaptobenzoic acid	490.65	
1074-43-7	1-Methyl-3-propylbenzene	190.65	455.15
1074-55-1	1-Methyl-4-propylbenzene	209.55	456.55
1074-58-4	2-(Cyclohexylamino)acetonitrile	291.15	
1074-59-5	1H-Imidazole-5-propanoic acid	480.15	
1074-86-8	Indole-4-carboxaldehyde	415.15	
1074-88-0	Indole-7-carboxaldehyde	361.15	
1074-89-1	6-Methoxy-9H-purine	468.65	
1074-91-5	1-Bromo-2,3,4,5-tetrafluorobenzene	422.65	
1074-98-2	Pyridine, 3-methyl-4-nitro-, 1-oxide	410.65	
107419-07-8	1-[4-[3-(Acetyloxy)phenyl]-1-methyl-4-piperidinyl]-1-propanone	445.65	
1075-06-5	Phenylglyoxal hydrate	356.15	
1075-35-0	5-Chloro-2-methyl-1H-indole	392.15	
1075-49-6	4-Vinylbenzoic acid	416.65	
1075-56-5	Pyridinium, 1-(2,3-dichloro-2-propen-1-yl)-, chloride (1:1)	475.65	
1075-61-2	3-(2-Aminopropyl)phenol	410.15	
1075-76-9	3-(Phenylamino)propanenitrile	322.15	
1075-89-4	8-Azaspiro[4.5]decane-7,9-dione	426.15	
107504-08-5	5-Fluoropyridine-2-carboxylic acid	430.15	
107534-96-3	Tebuconazole	375.55	
1076-12-6	rel-(1R,4S,4aR,5S,8R,8aS)-1,2,3,4,4a,5,8,8a-Octahydro-1,4:5,8-dimethanonaphthalene	351.15	
1076-17-1	1,2,3,6,7,8-Hexahydro-as-indacene	312.9	
1076-23-9	3-Hydroxy-N,N-dimethyl-2-pyridinecarboxamide	372.65	
1076-38-6	4-Hydroxycoumarin	479.15	
1076-43-3	Benzene-d6	272.15	355.65
1076-56-8	Thymol methyl ether		484.15
1076-59-1	3-Phenyl-5(4H)-isoxazolone	424.65	
1076-74-0	5-Methoxy-2-methylindole	362.65	
1076-95-5	(4-Methoxyphenyl)glyoxal	367.15	
1076-97-7	1,4-Cyclohexanedicarboxylic acid	340.15	
1076-98-8	1,4-Benzenedicarbothioic acid	401.15	
107623-21-2	1-Iodo-3-(phenylmethoxy)benzene	325.15	
1077-16-3	Hexylbenzene	212.15	499.25
1077-28-7	(±)-Lipoic acid	333.65	435.65
1077-36-7	2,6-Pyridinediethanol	325.65	
1077-61-8	2H-1-Benzothiopyran, 3,4-dihydro-6-methyl-, 1,1-dioxide	353.15	
1077-93-6	Ternidazole	403.15	
107703-78-6	Glemanserin	399.65	
107724-20-9	(+)-Eplerenone	516.15	
107753-78-6	Zafirlukast	412.15	
107761-24-0	2-Cyano-3-[3-ethoxy-4-hydroxy-5-[(phenylthio)methyl]phenyl]-2-propenamide	432.15	
1078-19-9	6-Methoxy-1-tetralone	351.15	
1078-21-3	Phenibut	526.15	
1078-28-0	6-Methoxy-2-methylquinoline	337.65	
1078-38-2	Acetylisoniazid	378.15	
1078-58-6	Diphenylzinc	378.65	555.65
1078-61-1	Dihydrocaffeic acid	412.15	
1078-71-3	Heptylbenzene	225.15	513.15
107868-30-4	Exemestane	470	
1079-02-3	Benzoic-2,3,4,5,6-d5 acid	395.15	
1079-17-0	1,2,4,5-Tetrachloro-3,6-bis(chloromethyl)benzene	447.9	
1079-21-6	Phenylhydroquinone	370.15	
1079-33-0	4-Benzothienyl methylcarbamate	402.15	
1079-66-9	Chlorodiphenylphosphine	288.65	
1079-71-6	1,2,3,4,5,6,7,8-Octahydroanthracene	351.15	567.15
1079-73-8	6-(4-Chlorophenyl)-2,3,4,5-tetrahydro-3-pyridazinone	451.15	
108-00-9	N,N-Dimethylethylenediamine	453.15	380.15
108-01-0	2-(Dimethylamino)ethanol	214.15	408.15
108-03-2	1-Nitropropane	165.15	404.75
108-05-4	Vinyl acetate	179.95	345.85
108-07-6	Methylmercury acetate	401.15	
108-08-7	2,4-Dimethylpentane	153.25	353.55
108-09-8	1,3-Dimethylbutylamine	428.65	381.65
108-10-1	Methyl isobutyl ketone	188.15	388.95
108-11-2	4-Methyl-2-pentanol	183.15	406.15
108-12-3	Isovaleryl chloride		387.15
108-13-4	Malonamide	441.15	
108-15-6	1-(Dimethylamino)-2-propylamine		386.15
108-16-7	1-(Dimethylamino)-2-propanol	397.15	397.65
108-18-9	Diisopropylamine	212.15	357.15
108-19-0	Biuret	463.15	
108-20-3	Diisopropyl ether	186.35	341.65
108-21-4	Isopropyl acetate	199.75	361.75
108-22-5	Isopropenyl acetate	180.25	370.15
108-24-7	Acetic anhydride	200.15	412.65
108-26-9	3-Methyl-2-pyrazolin-5-one	493.15	
108-27-0	5-Methyl-2-pyrrolidone	316.15	521.15
108-28-1	Protoanemonin		318.15
108-29-2	γ-Valerolactone	242.15	358.15
108-30-5	Succinic anhydride	392.75	534.15
108-31-6	Maleic anhydride	325.95	475.15
108-32-7	Propylene carbonate	224.35	515.15
108-33-8	2-Amino-5-methyl-1,3,4-thiadiazole	508.15	
108-36-1	1,3-Dibromobenzene	266.15	491.15
108-37-2	1-Bromo-3-chlorobenzene	251.65	469.15
108-38-3	m-Xylene	225.75	412.45
108-39-4	m-Cresol	284.65	475.15
108-40-7	3-Methylbenzenethiol		468.15
108-41-8	3-Chlorotoluene	225.35	434.95
108-42-9	3-Chloroaniline	262.75	503.65
108-43-0	3-Chlorophenol	305.75	487.15
108-44-1	m-Toluidine	241.95	476.45
108-45-2	m-Phenylenediamine	335.65	558.65
108-46-3	Resorcinol	383.15	553.15
108-47-4	2,4-Dimethylpyridine	209.15	431.65
108-48-5	2,6-Lutidine	267.35	417.15
108-49-6	2,6-Dimethylpiperazine	384.65	434.15
108-50-9	2,6-Dimethylpyrazine	320.65	428.75
108-52-1	2-Amino-4-methylpyrimidine	433.45	
108-53-2	Isocytosine	537.15	
108-55-4	Glutaric anhydride	329.45	560.15
108-56-5	Diethyl oxalacetate		405.15
108-57-6	m-Divinylbenzene	220.85	394.15
108-58-7	1,3-Benzenediol, 1,3-diacetate	418.65	
108-59-8	Dimethyl malonate	211.25	454.55
108-60-1	Bis(2-chloro-1-methylethyl) ether	173.85	460.15
108-61-2	2,2′-Oxybis[1-propanol]	338.15	
108-62-3	Metaldehyde	519.15	
108-64-5	Ethyl isovalerate	173.85	408.15
108-65-6	1-Methoxy-2-propyl acetate		419.15
108-67-8	Mesitylene	228.35	437.85
108-68-9	3,5-Dimethylphenol	337.15	492.65
108-69-0	3,5-Dimethylaniline	282.95	493.65
108-70-3	1,3,5-Trichlorobenzene	336.65	481.15
108-71-4	5-Methyl-1,3-benzenediamine		557.15
108-72-5	1,3,5-Triaminobenzene	357.65	
108-73-6	Phloroglucinol	491.65	
108-74-7	1,3,5-Trimethylhexahydro-1,3,5-triazine		430.65
108-75-8	2,4,6-Trimethylpyridine	228.65	443.55
108-77-0	Cyanuric chloride	419.15	465.15
108-79-2	2-Hydroxy-4,6-dimethylpyrimidine	470.15	
108-80-5	Cyanuric acid	633.15	429.65
108-82-7	2,6-Dimethyl-4-heptanol		449.65
108-83-8	Isobutyl ketone	231.65	441.15
108-84-9	4-Methyl-2-pentyl acetate	209.15	420.65
108-85-0	Bromocyclohexane	216.65	439.35
108-86-1	Bromobenzene	242.45	429.35
108-87-2	Methylcyclohexane	146.55	374.05
108-88-3	Toluene	178.25	383.75
108-89-4	4-Methylpyridine	276.81	418.15
108-90-7	Chlorobenzene	227.95	404.85
108-91-8	Cyclohexylamine	255.45	407.65
108-93-0	Cyclohexanol	298.55	434.23
108-94-1	Cyclohexanone	242.15	274.55
108-95-2	Phenol	314.06	454.9
108-96-3	4(1H)-Pyridinone	338.65	
108-97-4	4H-Pyran-4-one	305.65	485.65
108-98-5	Thiophenol	258.25	441.45
108-99-6	3-Methylpyridine	255.05	416.65
1080-06-4	L-Tyrosine, methyl ester	410.15	
1080-12-2	Dehydrozingerone	402.15	
1080-44-0	N-[(4-Methylphenyl)sulfonyl]glycine	422.65	
108030-77-9	Penclomedine	346.15	
1081-09-0	1,1′-(1,4-Dihydro-2,4,6-trimethyl-3,5-pyridinediyl)bis[ethanone]	435.15	
1081-34-1	2,2′:5′,2′′-Terthiophene	366.65	
1081-50-1	4-Pyridinecarboxylic acid, 2-(1-carboxyethylidene)hydrazide	479.65	
1081-75-0	1,3-Diphenylpropane	279.15	573.45
1081-77-2	n-Nonylbenzene	249.15	553.65
108102-49-4	rel-(2R,3R)-2-Amino-1,3-butanediol	395.15	
108132-35-0	2H-1-Benzopyran-6-methanamine, 3,4-dihydro-α-(phenylmethyl)-, hydrochloride (1:1)	493.65	
108132-59-8	(3,5-Dimethyl-1H-pyrazol-1-yl)(4-ethoxy-3,5-dimethoxyphenyl)methanone	365.65	
108147-54-2	1-Deoxygalactonojirimycin	517.15	
1082-57-1	Tramazoline	415.65	
1082-85-5	N-(4-Acetylphenyl)maleimide	431.9	
1082-88-8	3,4,5-Trimethoxyamphetamine	491.15	
108206-25-3	1,3,4,8,9,14,14b,14c-Octahydro-6-methyl-2H,6H-pyrido[1′′,2′′:3′,4′]imidazo[1′,5′:1,2]pyrido[3,4-b]indole	359.65	
1083-09-6	2,4,5-Trimethoxyamphetamine	403.15	
1083-27-8	Hexyl 4-hydroxybenzoate	321.75	
1083-30-3	Dihydrochalcone	345.15	
1083-41-6	Butyl gallate	406.65	
1083-48-3	4-(4-Nitrobenzyl)pyridine	344.15	
1083-56-3	1,1′-(1,4-Butanediyl)bis[benzene]	325.65	590.15
1083-57-4	Bucetin	433.15	
108320-78-1	11-Methyl-6H-pyrido[4,3-b]carbazole-5-methanol	530.65	
1084-43-1	Phenazinium, 1,3-diamino-5-methyl-, chloride (1:1)	569.65	
1084-64-6	2H-1-Benzothiopyran-7-sulfonyl chloride, 3,4-dihydro-6-methyl-, 1,1-dioxide	432.65	
1084-65-7	Arresten	509.65	
1084-66-8	2H-1-Benzothiopyran-7-sulfonamide, 6-chloro-3,4-dihydro-, 1,1-dioxide	490.15	
1084-76-0	N-(2,4-Dinitrophenyl)glycine	478.15	
1085-12-7	Heptyl p-hydroxybenzoate	322.95	
1085-35-4	Phosphorodithioic acid, O,O-diphenyl ester, ammonium salt (1:1)	413.65	
1085-98-9	Dichlofluanid	378.45	
1086-00-6	1-(Chloromethyl)pyrene	417.65	
1086-02-8	Pyridinitril	476.65	
108614-26-2	1-(4-Ethynylphenyl)-4-propyl-2,6,7-trioxabicyclo[2.2.2]octane	401.15	
108614-27-3	4-Butyl-1-(4-ethynylphenyl)-2,6,7-trioxabicyclo[2.2.2]octane	359.15	
1087-02-1	1,4-Dicyclohexylbenzene	373.15	
1087-26-9	Hexyl gallate	365.15	
1088-11-5	Nordiazepam	489.65	
1088-56-8	Lumiflavin	593.15	
1088-80-8	3-[Bis(2-chloroethyl)amino]-L-phenylalanine	455.15	
1088-92-2	Nifurtoinol	531.15	
1088-95-5	Benzoic acid, 2-(4-nitrophenyl)hydrazide	466.65	
108909-17-7	1,1,1,3,5,7,7,7-Octamethyl-3,5-tetrasiloxanediol	246.15	
108929-04-0	Epinastine hydrochloride	547.15	
109-00-2	3-Hydroxypyridine	400.65	
109-01-3	1-Methylpiperazine	267.15	411.15
109-02-4	4-Methylmorpholine	419.65	389.15
109-04-6	2-Bromopyridine		467.95
109-05-7	2-Methylpiperidine		393.15
109-06-8	2-Methylpyridine	203.15	401.65
109-07-9	2-Methylpiperazine	335.15	426.15
109-08-0	Methylpyrazine	244.15	410.15
109-09-1	2-Chloropyridine	226.65	443.15
109-11-5	3-Morpholinone	378.15	
109-12-6	2-Aminopyrimidine	400.65	
109-17-1	Tetraethylene glycol, dimethacrylate		493.15
109-19-3	Butyl isovalerate		423.15
109-21-7	Butyl butyrate	181.65	439.15
109-23-9	N,N′-Methylenebis[octadecanamide]	422.15	
109-29-5	Hexadecanolide	306.8	
109-31-9	1,9-Dihexyl nonanedioate	265.15	
109-36-4	Stearic acid, octyl ester	316.65	
109-42-2	Butyl 10-undecenoate		389.15
109-43-3	Dibutyl sebacate	263.15	617.65
109-46-6	N,N′-Dibutylthiourea	337.15	
109-49-9	5-Hexen-2-one		402.65
109-52-4	Pentanoic acid	238.65	459.65
109-53-5	Isobutyl vinyl ether	161.15	356.15
109-54-6	3-Chloro-N,N-dimethyl-1-propanamine	458.15	413.15
109-55-7	N,N-Dimethyl-1,3-propanediamine	203.15	396.15
109-56-8	2-(Isopropylamino)ethanol	401.65	446.15
109-57-9	Allylthiourea	351.15	
109-60-4	Propyl acetate	180.15	374.65
109-61-5	Propyl chloroformate		385.55
109-62-6	Ethylmercury acetate	327.15	
109-63-7	Boron trifluoride etherate	212.75	398.85
109-64-8	1,3-Dibromopropane	238.95	440.45
109-65-9	Butyl bromide	161.15	374.45
109-66-0	Pentane	143.45	309.25
109-67-1	1-Pentene	107.95	303.05
109-68-2	2-Pentene	126.15	310.15
109-69-3	Butyl chloride	150.05	351.65
109-70-6	1-Bromo-3-chloropropane	214.25	416.45
109-72-8	Butyllithium	383.15	
109-73-9	Butylamine	223.15	351.15
109-74-0	Butyronitrile	161.15	390.65
109-75-1	3-Butenenitrile	186.15	392.15
109-76-2	1,3-Propanediamine	327.65	412.95
109-77-3	Malononitrile	305.15	491.65
109-78-4	3-Hydroxypropionitrile	227.15	494.15
109-79-5	Butanethiol	157.45	371.55
109-80-8	1,3-Propanedithiol	194.15	446.05
109-81-9	N-Methylethylenediamine		388.15
109-82-0	2-(Methyleneamino)acetonitrile	402.15	
109-83-1	2-(Methylamino)ethanol	268.65	428.65
109-84-2	Hydroxyethylhydrazine	203.15	492.15
109-85-3	2-Methoxyethylamine	392.15	
109-86-4	2-Methoxyethanol	188.05	397.25
109-87-5	Dimethoxymethane	168.15	314.75
109-89-7	Diethylamine	223.15	328.65
109-90-0	Ethyl isocyanate	477.65	333.15
109-92-2	Ethyl vinyl ether	158.15	309.15
109-93-3	Vinyl ether	172.15	301.45
109-94-4	Ethyl formate	192.65	327.65
109-95-5	Ethyl nitrite		290.15
109-96-6	3-Pyrroline		363.65
109-97-7	1H-Pyrrole	249.75	402.85
109-98-8	2-Pyrazoline	437.15	417.15
109-99-9	Tetrahydrofuran	164.85	338.15
1090-13-7	5,12-Naphthacenedione	558.15	
1090-16-0	2-Anilino-3-chloro-1,4-naphthoquinone	488.15	
1090-78-4	N,N-Dimethyl-10H-phenothiazine-2-sulfonamide	449.65	
109010-60-8	(S)-1,1-Dimethylethyl 3-amino-2-oxo-2,3,4,5-tetrahydro-1H-benz[b]azepin-1-acetate	383.65	
1091-93-6	3-Methoxyestra-2,5(10)-dien-17β-ol	385.4	
109142-50-9	1-Cyclopropyl-6-fluoro-1,4-dihydro-7-(4-hydroxy-1-piperazinyl)-4-oxo-3-quinolinecarboxylic acid	536.15	
1092-47-3	1-Butanone, 1-[2-[2-[bis(1-methylethyl)amino]ethoxy]phenyl]-, hydrochloride (1:1)	402.65	
109293-97-2	Diflufenzopyr	428.15	
1093-07-8	(2′aS)-2′a,3′,4′,5′-Tetrahydro-3′-methylspiro[2,5-cyclohexadiene-1,1′(2′H)-cyclopenta[ij][1,3]dioxolo[4,5-g]isoquinolin]-4-one	452.15	
1093-58-9	Clostebol	462.15	
1093-60-3	(5α,17β)-17-Hydroxyandrost-2-ene-2-carbonitrile	424.15	
109384-19-2	4-Hydroxypiperidine-1-carboxylic acid tert-butyl ester	430.15	
1094-08-2	Ethopropazine hydrochloride	497.15	
1095-03-0	Phenyl borate	312.15	417.95
1095-04-1	Triphenyl phosphorotrithioite	349.65	
1095-77-8	1,1′-[2,2,2-Trifluoro-1-(trifluoromethyl)ethylidene]bis[4-methylbenzene]	353.65	
1095-78-9	4,4′-[2,2,2-Trifluoro-1-(trifluoromethyl)ethylidene]bis[benzenamine]	470.15	
1095-90-5	Methadone hydrochloride	508.15	
1096-03-3	4-(Phenylamino)-1-(phenylmethyl)-4-piperidinecarboxamide	460.65	
1096-38-4	Pregna-4,16-diene-3,20-dione	459.15	
1096-48-6	1-(Cyclohexylamino)-9,10-anthracenedione	418.65	
1096-84-0	1,1′-Methylenebis[2-naphthalenol]	463.65	
109629-31-4	4-Piperidinone, 1-(2-ethoxyethyl)-3-methyl-, hydrochloride (1:1)	415.65	
1097-51-4	16α,17α-Epoxyprogesterone	479.15	
1098-60-8	10H-Phenothiazine-10-propanamine, N,N-dimethyl-2-(trifluoromethyl)-, monohydrochloride	446.15	
1098-97-1	Pyritinol	492.15	
109826-27-9	2H-Benzimidazol-2-one, 1,3-dihydro-1-[1-[(4-methyl-4H,6H-pyrrolo[1,2-a][4,1]benzoxazepin-4-yl)methyl]-4-piperidinyl]-, (2Z)-2-butenedioate (1:1)	462.65	
109887-53-8	rel-(3R,4S)-4-(4-Fluorophenyl)-1-methyl-3-piperidinemethanol	395.85	
1099-45-2	Ethyl triphenylphosphoranylideneacetate	397.65	
1099-87-2	Sodium prasterone sulfate	427.15	
110-00-9	Furan	187.55	304.51
110-01-0	Tetrahydrothiophene	176.99	394.27
110-02-1	Thiophene	233.75	357.15
110-03-2	2,5-Dimethyl-2,5-hexanediol	365.15	
110-04-3	1,2-Ethanedisulfonic acid	446.15	
110-05-4	tert-Butyl peroxide	233.15	384.15
110-06-5	tert-Butyl disulfide	268.15	345.15
110-11-2	Octyl sulfate	293.45	439.25
110-12-3	5-Methyl-2-hexanone	199.15	417.15
110-13-4	2,5-Hexanedione	267.65	467.15
110-14-5	Succinamide	541.15	
110-15-6	Succinic acid	461.15	508.15
110-16-7	Maleic acid	404.15	383.15
110-17-8	Fumaric acid	473.15	795.15
110-18-9	N,N,N′,N′-Tetramethylethylenediamine	218.15	394.15
110-19-0	Isobutyl acetate	174.35	389.65
110-20-3	2-(1-Methylethylidene)hydrazinecarboxamide	460.15	
110-21-4	Diurea	531.15	
110-22-5	Acetyl peroxide	303.15	
110-25-8	Oleoylsarcosine	289.7	
110-26-9	Methylenebisacrylamide	454.65	
110-27-0	Isopropyl myristate	276.15	465.75
110-29-2	Decyl octyl adipate	223.15	
110-30-5	Ethylenebis(stearamide)	413.65	
110-31-6	Ethylenebis(oleamide)	390.65	
110-33-8	Dihexyl adipate	265.15	
110-36-1	Butyl myristate	437.15	398.15
110-38-3	Ethyl caprate	253.15	514.65
110-39-4	Octyl butyrate	217.55	517.25
110-40-7	Diethyl sebacate	278.15	578.15
110-42-9	Methyl decanoate	255.15	497.15
110-43-0	2-Heptanone	237.65	384.15
110-44-1	Sorbic acid	407.65	
110-45-2	Isoamyl formate	179.65	396.65
110-46-3	Isoamyl nitrite		372.35
110-49-6	Ethylene glycol monomethyl ether acetate	208.05	418.15
110-51-0	Pyridine-borane	319.65	
110-52-1	1,4-Dibromobutane	256.65	470.15
110-53-2	1-Bromopentane	178.15	402.95
110-54-3	Hexane	178.85	341.85
110-56-5	1,4-Dichlorobutane	235.85	434.15
110-57-6	trans-1,4-Dichloro-2-butene	275.15	428.55
110-58-7	Pentylamine	218.15	377.45
110-59-8	Valeronitrile	176.95	414.45
110-60-1	Putrescine	300.65	431.65
110-61-2	Succinonitrile	327.65	539.15
110-62-3	Pentanal	181.65	376.15
110-63-4	1,4-Butanediol	293.25	503.15
110-64-5	2-Butene-1,4-diol	280.15	
110-65-6	2-Butyne-1,4-diol	331.15	511.15
110-66-7	1-Pentanethiol	197.45	372.65
110-67-8	3-Methoxypropionitrile		436.15
110-68-9	Methylbutylamine	198.15	364.15
110-69-0	Butanal, oxime	243.65	427.15