CAS	name	Tm	Tb
23911-56-0	1-(3-Methyl-2-benzofuranyl)ethanone	297.15	
23911-85-5	1,1′-[(2-Hydroxy-1,3-propanediyl)bis[oxy(2-hydroxy-4,1-phenylene)]]bis[phenylmethanone]	422.65	
23915-26-6	5-(3,4-Dichlorophenyl)-2,5-dihydro-3H-imidazo[2,1-a]isoindol-5-ol	474.15	
23915-80-2	4H-1-Benzopyran-2-carboxylic acid, 4-oxo-, compd. with N-ethylethanamine (1:1)	411.15	
23918-98-1	Eritadenine	552.15	
2392-39-4	Dexamethasone sodium phosphate	507.15	
2392-48-5	2,4,4′-Trichloro-2′-nitrodiphenyl ether	358.15	
2392-68-9	3-Chlorophenyl isothiocyanate		522.65
2392-95-2	Kaempferol 3-O-glucoside-7-O-rhamnoside	519.15	
2393-17-1	3-(4-Aminophenyl)propionic acid	468.65	
2393-18-2	3-(4-Aminophenyl)-2-propenoic acid	430.65	
2393-23-9	4-Methoxybenzylamine	454.15	509.65
2393-53-5	3-(Benzoyloxy)estra-1,3,5(10)-trien-17-one	491.65	
23930-19-0	Alphaxalone	446.15	
23930-37-2	(3α,5α)-21-(Acetyloxy)-3-hydroxypregnane-11,20-dione	449.15	
23936-04-1	4-(2-Hydroxyethyl)-2-piperazinone	332.9	
23936-60-9	1,2-Bis(dimethylphosphino)ethane	273.15	
2394-23-2	Pregn-4-ene-3,20-dione, 19,21-dihydroxy-	437.15	
23941-53-9	6-Mercapto-2(1H)-pyridinethione	423.15	
23942-99-6	(α1S)-3,4-Dimethoxy-α1-[(5R)-5,6,7,8-tetrahydro-4-methoxy-6-methyl-1,3-dioxolo[4,5-g]isoquinolin-5-yl]-1,2-benzenedimethanol	404.15	
23945-44-0	1,2,3,4-Tetrahydro-2,4-dioxo-5-pyrimidinecarboxylic acid	556.15	
23945-50-8	5-Carboxy-2-thiouracil	519.65	
23947-60-6	Ethirimol	433.15	
23948-77-8	[1,1′-Biphenyl]-3-acetic acid	409.15	
2395-99-5	4-Nitrophenyl	359.15	
23950-58-5	Propyzamide	428.65	
23950-98-3	2-Methoxy-4-propylcyclohexanol		507.15
23957-50-8	Benzoic acid, 3,5-dichloro-4-propoxy-, 2-(phenylmethyl)hydrazide, hydrochloride (1:1)	435.65	
2396-60-3	4-Methoxyazobenzene	329.15	613.15
2396-63-6	1,6-Heptadiyne	188.15	385.15
2396-65-8	1,8-Nonadiyne	245.85	435.15
2396-77-2	Methyl 2-hexenoate	305.15	
2396-80-7	Methyl 5-hexenoate		448.15
2396-83-0	Ethyl 3-hexenoate		439.65
2396-84-1	Ethyl sorbate	369.65	468.65
23961-22-0	(6α,11β,16α)-21-(Acetyloxy)-2-chloro-6,9-difluoro-11,17-dihydroxy-16-methylpregna-1,4-diene-3,20-dione	476.15	
23961-95-7	(6α,9β,11β,16α)-9,11-Epoxy-6-fluoro-17,21-dihydroxy-16-methylpregna-1,4-diene-3,20-dione	514.4	
23964-57-0	Articaine hydrochloride	450.65	
23964-58-1	Articaine	448.65	
23976-66-1	2-(2,4,6-Tribromophenoxy)ethanol	389.15	
23978-10-1	1,4,7,13,16-Pentaoxa-10,19-diazacycloheneicosane	313.15	
23978-55-4	Diaza-18-crown-6	415.65	
23979-41-1	(R)-Naproxen	429.65	
2398-37-0	3-Bromoanisole	379.85	484.15
2398-68-7	Eicosylbenzene	317.15	702.15
2398-81-4	Nicotinic acid N-oxide	527.65	
2398-96-1	2-Naphthyl N-methyl-N-(3-tolyl)thiocarbamate	384.15	
23981-47-7	6-Methoxy-2-naphthylacetic acid	477.15	
23981-48-8	Methyl 6-methoxy-2-naphthylacetate	359.15	
23981-80-8	(±)-Naproxen	429.65	
23983-43-9	Dehydroepiandrosterone enanthate	342.65	
2399-66-8	1-Benzoyl-2-pyrrolidinone	358.15	
23996-12-5	2PZ-CN	380.65	
23996-53-4	1H-Imidazole-1-propanenitrile	308.65	
23996-55-6	1-Cyanoethyl-2-methylimidazole	328.9	
23999-64-6	6-Methoxy-2-methylbenzoxazole	325.4	
2400-51-3	3-(Hydroxyacetyl)indole	433.15	
2400-52-4	2-(Benzoyloxy)-1-(1H-indol-3-yl)ethanone	461.15	
2400-66-0	Eicosanal	351.15	
24000-79-1	1,4-Benzenedicarboxylic acid, 1-methyl ester, 4-[2-[4-(methoxycarbonyl)benzoyl]hydrazide]	569.65	
2401-24-3	2-Chloro-5-methoxybenzenamine	300.15	
2401-64-1	2,4-Dichloro-6-(dimethylamino)-1,3,5-triazine	396.15	
2401-73-2	1,3-Dichloro-1,1,3,3-tetramethyldisiloxane	235.65	411.15
2401-85-6	1-Chloro-2,4-dinitronaphthalene	419.65	
240122-32-1	1-Hydroxy-2,7-dimethoxydibenz[cd,f]indol-4(5H)-one	536.15	
24016-03-3	2-Amino-3-benzyloxypyridine	363.15	
24017-47-8	Triazophos	276.65	
2402-42-8	Quinolinium, 1-ethyl-2-[(1-ethyl-2(1H)-quinolinylidene)methyl]-, chloride (1:1)	488.15	
2402-58-6	1,4-Didodecyl (2E)-2-butenedioate	322.15	
2402-77-9	2,3-Dichloropyridine	339.15	
2402-78-0	2,6-Dichloropyridine	361.15	484.15
2402-79-1	2,3,5,6-Tetrachloropyridine	363.65	523.65
2402-82-6	3,3-Bis(iodomethyl)oxetane	320.65	
2402-83-7	3,3-Bis(bromomethyl)oxetane	298.15	
2402-95-1	2-Chloropyridine N-oxide	340.15	
2402-97-3	Pyridine, 3-bromo-, 1-oxide	384.15	
2402-98-4	2-Pyridinecarbonitrile, 1-oxide	396.65	
24020-66-4	Pyridinium, 1-(2-sulfoethyl)-, inner salt	533.15	
24021-49-6	3-Benzoylbenzeneacetamide	390.65	
24027-84-7	5-Hydroxybenzo[a]pyrene	468.65	
24028-40-8	5-Phenyl-1,3,4-thiadiazol-2(3H)-one	419.15	
2403-22-7	N-Butylbenzylamine	328.15	361.15
2403-66-9	1H-Benzimidazole-2-propanol	436.15	
2403-88-5	4-Hydroxy-2,2,6,6-tetramethylpiperidine	401.65	
2403-89-6	1,2,2,6,6-Pentamethyl-4-piperidinol	344.15	
2404-18-4	1-Piperidineacetic acid, α-phenyl-, 2-(1-piperidinyl)ethyl ester, hydrochloride (1:2)	486.15	
2404-35-5	Bromocycloheptane		335.65
2404-87-7	3-Phenylthiophene	364.65	
24041-60-9	(+)-Isopinocampheol	330.15	
24050-09-7	2-Ethylthiazolidine		445.65
24056-48-2	Ethyl 5-hydroxy-6-methyl-4-oxo-4H-pyran-2-carboxylate	399.15	
24057-28-1	Pyridinium p-toluenesulfonate	387.15	
24059-71-0	1-(2-Methylphenyl)-2-pyrrolidinone	318.65	
2406-33-9	1,1-Dichlorosilacyclopentane	413.15	415.65
24063-71-6	Isocurcumenol	415.65	
24065-33-6	5-Chloro-2-thiophenecarboxylic acid	419.65	
24066-82-8	Ethyl 2-isothiocyanatoacetate		488.15
2407-11-6	2-Chloro-6-nitrobenzothiazole	465.15	
2407-94-5	1,1′-Dioxybis[cyclohexanol]	340.15	
24070-52-8	4-Bromo-1-phenyl-1-butanone	303.4	
24070-77-7	2-Methylcyclopentanol	373.65	
24072-75-1	2-Amino-5,6-dichlorobenzothiazole	491.65	
24078-21-5	Benzoic acid, 3-methyl-4-nitro-, methyl ester	351.65	
2408-20-0	Allyl propionate		397.15
2408-36-8	Lithium cyanide (Li(CN))	433.15	
2408-37-9	2,2,6-Trimethylcyclohexanone	241.35	451.65
2408-38-0	2,3,4,6-Tetramethylbenzoic acid	438.15	
2408-40-4	Diethylstilbestrol monoglucuronide	448.15	
2408-88-0	1-Phenyl-2-[(phenylmethyl)thio]ethanone	362.15	
24083-13-4	4-(Octyloxy)benzaldehyde		435.65
24085-08-3	Ethanone, 2-[(1,1-dimethylethyl)(phenylmethyl)amino]-1-[4-hydroxy-3-(hydroxymethyl)phenyl]-, hydrochloride (1:1)	447.15	
2409-36-1	9H-Carbazole-9-methanol	401.65	
2409-52-1	1,4-Diethyl 2-methylenebutanedioate	331.65	501.15
2409-55-4	2-tert-Butyl-4-methylphenol	328.15	510.15
24094-45-9	1-Hydroxy-2-(hydroxymethyl)-9,10-anthracenedione	484.15	
2410-19-7	Dihydrolysergamide	553.65	
24100-18-3	2-Bromo-3-methoxypyridine	314.65	
24106-05-6	N-(4-Bromo-2-methylphenyl)acetamide	429.15	
2411-36-1	Triheptylamine		603.15
2411-74-7	Furfural semicarbazone	487.65	
2411-83-8	Methyl 2,3-dihydroxybenzoate	352.65	
2412-10-4	Morpholinium, 4,4-dimethyl-, iodide (1:1)	525.15	
2412-73-9	Cyclohexyl benzoate		558.15
24123-89-5	2-Benzylidene-3-quinuclidinone	406.15	
2413-38-9	Flupentixol dihydrochloride	511.15	
24133-73-1	Phenol, 4-(1-methyl-1-phenylethyl)-, 1-acetate		600.15
24139-56-8	2,4-Pentadienoic acid, 2-cyano-5-phenyl-, ethyl ester	384.65	
2414-98-4	Magnesium ethoxide	543.15	
24143-17-7	Oxazolam	460.15	
24144-92-1	1-[(1E)-2-(3,5-Dimethoxyphenyl)ethenyl]-2,4-dimethoxybenzene	351.65	
2415-24-9	Catalpol	480.15	
2415-28-3	18,19-Dinorpregn-4-en-20-yn-3-one, 21-chloro-13-ethyl-17-hydroxy-, (17α)-(±)-	426.15	
2415-72-7	Propylcyclopropane	341.65	342.25
2415-85-2	N-(4-Methylphenyl)-3-oxobutanamide	367.65	
2415-87-4	N-(3-Chlorophenyl)-3-oxobutanamide	378.65	
24155-32-6	1-(4-Chlorophenyl)-2-(1H-imidazol-1-yl)ethanone	424.15	
24155-34-8	2-(1H-Imidazol-1-yl)-1-phenylethanone	391.15	
24155-42-8	(±)-α-(2,4-Dichlorophenyl)-1H-imidazole-1-ethanol	407.15	
24155-45-1	α-(4-Chlorophenyl)-1H-imidazole-1-ethanol	435.15	
24155-47-3	2-(1H-Imidazol-1-yl)-1-phenylethanol	419.65	
24157-81-1	2,6-Diisopropylnaphthalene	339.95	
24158-88-1	(2S,5R)-6,6-Dibromo-3,3-dimethyl-7-oxo-4-thia-1-azabicyclo[3.2.0]heptane-2-carboxylic acid	416.65	
24159-07-7	3-[3-[(2R,3S)-3-Hydroxy-2-piperidinyl]-2-oxopropyl]-4(3H)-quinazolinone	418.15	
2416-40-2	Benzenemethanol, 4,4′-oxybis-, diacetate	323.4	
2416-94-6	2,3,6-Trimethylphenol	331.15	499.15
24160-53-0	3-(2,4,5-Trimethoxyphenyl)-2-propenoic acid	437.15	
24166-13-0	Cloxazolam	476.15	
24167-56-4	4-Fluoro-N,N-dimethylbenzamide	337.15	
24168-96-5	Isoconazole nitrate	455.65	
24169-02-6	Econazole nitrate	435.15	
2417-04-1	3,3′,5,5′-Tetramethyl[1,1′-biphenyl]-4,4′-diol	494.95	
2417-72-3	Methyl 4-(bromomethyl)benzoate	327.65	
2417-77-8	9-(Bromomethyl)anthracene	409.4	
24170-60-3	N-[2-[2-(2-Cyano-4,6-dinitrophenyl)diazenyl]-5-(diethylamino)phenyl]acetamide	484.15	
2418-14-6	Dimercaptosuccinic acid	440.65	
2418-21-5	(2E)-2,3-Dichloro-1,1,1,4,4,4-hexafluoro-2-butene		340.15
2418-22-6	(2Z)-2,3-Dichloro-1,1,1,4,4,4-hexafluoro-2-butene		341.05
2418-45-3	Ergosterol, acetate	399.15	
24180-58-3	Strychnidine-10,11-dione, 11-oxime, monohydrochloride	493.15	
2419-38-7	N-Phthaloyl-L-leucine	391.65	
2419-73-0	1,4-Dichloro-2,3-butanediol	399.65	
24192-82-3	Benzimidazo[1,2-c]quinazoline-6(5H)-thione	579.15	
2420-16-8	3-Chloro-4-hydroxybenzaldehyde	412.15	
2420-17-9	5-(4-Hydroxyphenyl)-2,4-imidazolidinedione	535.15	
2420-27-1	N2,N4,N6-Tris(methoxymethyl)-1,3,5-triazine-2,4,6-triamine	391.15	
2420-87-3	3,3′,4,4′-Biphenyltetracarboxylic dianhydride	540.15	
24204-13-5	Dihydrocodeine phosphate	384.15	
24207-38-3	N-(2-Hydroxyethyl)salicylamide	391.15	
24207-41-8	2,4-Dihydroxy-N-(2-hydroxyethyl)benzamide	440.15	
24209-38-9	(6R,7R)-7-Amino-3-[[(1-methyl-1H-tetrazol-5-yl)thio]methyl]-8-oxo-5-thia-1-azabicyclo[4.2.0]oct-2-ene-2-carboxylic acid	498.15	
2421-28-5	Benzophenonetetracarboxylic dianhydride	498.9	
2421-44-5	2-Propenoic acid, 2-methyl-, 2-(dimethylamino)ethyl ester, hydrochloride (1:1)	395.4	
24211-30-1	(-)-Farrerol	489.15	
24211-64-1	Calotropagenin	513.15	
24211-81-2	Uscharin	538.15	
24214-72-0	Cyclopentylhydrazine hydrochloride	404.65	
2422-79-9	12-Methylbenz[a]anthracene	411.15	
2422-86-8	Bicyclo[3.2.0]hepta-2,6-diene		394.15
2422-90-4	N-Dodecylthiourea	378.15	
24221-86-1	(+)-Ephedrine hydrochloride	454.65	
2423-66-7	Quinoxaline dioxide	511.65	
2423-71-4	2,6-Dimethyl-4-nitrophenol	441.15	
24237-54-5	Tinoridine	385.65	
24237-68-1	4-Nitro-9H-fluorene	348.65	
2424-01-3	Diallylmethylamine	385.15	385.15
2424-02-4	N-Ethylallylamine		357.15
2424-59-1	1-Cyclohexyl (2Z)-2-butenedioate	337.15	
2424-61-5	Monododecyl maleate	331.15	
2424-62-6	1-Octadecyl (2Z)-2-butenedioate	351.15	
2424-71-7	Ethanaminium, 2-[(2-hydroxy-2,2-diphenylacetyl)oxy]-N,N,N-trimethyl-, iodide (1:1)	468.15	
2424-75-1	Benzeneacetic acid, α-ethoxy-α-phenyl-, 2-(dimethylamino)ethyl ester, hydrochloride	443.15	
2424-90-0	Heptadecanedioic acid	389.65	
2424-92-2	Eicosanedioic acid	398.65	
2424-98-8	Vinyl isobutyrate		377.65
24242-20-4	5-Aminopicolinic acid	491.65	
24245-27-0	Diphenylguanidinium chloride	414.65	
2425-06-1	Captafol	433.65	
2425-10-7	Xylylcarb	352.65	399.15
2425-28-7	α-(Bromomethyl)benzenemethanol	383.65	
2425-41-4	2-Phenyl-1,3-dioxane-5,5-dimethanol	406.15	
2425-54-9	1-Chlorotetradecane	278.05	565.15
2425-66-3	1-Chloro-2-nitropropane		445.65
2425-74-3	N-(1,1-Dimethylethyl)formamide	289.15	475.15
2425-77-6	2-Hexyl-1-decanol	289.15	
2425-79-8	1,4-Butanediol diglycidyl ether		430.65
2425-95-8	2,5-Bis(4-aminophenyl)-1,3,4-oxadiazole	527.65	
24254-01-1	3-Oxopregn-4-ene-20-carboxaldehyde	430.15	
24259-59-4	L-Ribose	360.15	
2426-02-0	3,4,5,6-Tetrahydrophthalic anhydride	347.15	
2426-08-6	Butyl glycidyl ether	332.15	437.15
2426-65-5	1H-Indole, 5-methoxy-3-[2-(1-pyrrolidinyl)ethyl]-, hydrochloride (1:1)	440.15	
2426-87-1	4-(Benzyloxy)-3-methoxybenzaldehyde	340.15	
24260-42-2	Carbonic acid, 4-formylphenyl methyl ester	291.65	
24262-38-2	3-Bromo-7,7-dimethyl-2-oxobicyclo[2.2.1]heptane-1-methanesulfonic acid	455.65	
2427-71-6	6-Chloro-2(1H)-quinoxalinone	578.15	
24270-67-5	1,1,3-Trifluoropropane		318.15
24279-39-8	2,6-Dichloro-4-trifluoromethylaniline	306.65	
24279-91-2	Carboquone	475.15	
2428-04-8	N2,N2,N4,N4,N6,N6-Hexachloro-1,3,5-triazine-2,4,6-triamine	428.15	
24280-45-3	1-Piperazinecarboxylic acid, ethyl ester, hydrochloride (1:1)	416.65	
24280-93-1	Mycophenolic acid	414.15	
24286-28-0	L-Galactonic acid, 6-deoxy-, γ-lactone	366.15	
24292-47-5	Octadecanoic acid, 2-[(2R,3R)-2-[(dichloroacetyl)amino]-3-hydroxy-3-(4-nitrophenyl)propoxy]-2-oxoethyl ester	346.15	
24293-41-2	Acetic acid, mercapto-, (1-methylethylidene)di-4,1-cyclohexanediyl ester	317.15	
24298-17-7	1-Octanaminium, N,N-dioctyl-N-propyl-, bromide (1:1)	347.15	
243-17-4	11H-Benzo[b]fluorene	485.15	674.65
243-28-7	5H-Benzo[b]carbazole	603.65	
243-30-1	6H-Pyrido[4,3-b]carbazole	556.65	
243-38-9	5H-Quinindoline	619.15	
243-42-5	Benzo[b]naphtho[2,3-d]furan	482.65	669.15
243-46-9	Benzo[b]naphtho[2,3-d]thiophene	433.15	
243-51-6	11H-Indeno[1,2-b]quinoline	443.65	
2430-00-4	2,2,2-Trichloro-N,N-diethylacetamide	300.15	
2430-22-0	7-Methyl-1-octanol	337.65	479.15
2430-27-5	Valpromide	398.15	
2430-49-1	Vinylbital	364.15	
2430-94-6	cis-5-Dodecenoic acid	233.65	
24302-35-0	4-(1-Piperidinyl)phenol	433.65	
24304-50-5	N,N′-(2,5-Dimethyl-1,4-phenylene)bis[3-oxobutanamide]	513.15	
24305-56-4	4-Dodecylresorcinol	351.15	
24307-26-4	Mepiquat chloride	496.15	379.15
24309-97-5	N-(2-Hydroxyethyl)-3-oxobutanamide	378.15	
2431-00-7	(4-Methylphenyl)phenylethanedione	373.15	
2431-54-1	1,2,4-Trichloro-2-butene		341.15
2431-96-1	N,N-Diethyl-2-phenylacetamide	358.15	443.15
24310-18-7	Butanoic acid, 3-methyl-, hydrazide	431.15	
24310-41-6	3-(Chloromethyl)-1,2,3-benzotriazin-4(3H)-one	400.65	
24313-88-0	3,4,5-Trimethoxyaniline	386.65	
24316-19-6	Cephalotaxine	404.65	
24318-02-3	1-Chloro-3-(phenylmethoxy)benzene	332.15	
24318-43-2	Benzoic acid, 4-methoxy-, (4-methoxyphenyl)methyl ester	301.65	
2432-11-3	2,6-Diphenylphenol	374.15	
2432-12-4	2,6-Dichloro-4-methylphenol	312.15	504.15
2432-14-6	2,6-Dibromo-4-methylphenol	323.15	
2432-42-0	S-Ethyl propanethioate	178.15	404.15
2432-63-5	1,4-Dipropyl (2Z)-2-butenedioate		344.15
2432-74-8	6-Aminohexanenitrile	241.75	508.65
2432-88-4	1,10-Didodecyl decanedioate	312.8	
2432-99-7	Aminoundecanoic acid	464.15	
24320-15-8	Pregn-4-ene-3,20-dione, 17-(acetyloxy)-9-bromo-11-hydroxy-, (11β)-	408.65	
24321-47-9	Uscharidin	563.15	
24323-25-9	2-Methylundecanoic acid	286.15	
24324-17-2	Fluorene-9-methanol	379.15	598.55
24325-70-0	1-Methyl-4-[(1E)-2-(4-nitrophenyl)ethenyl]benzene	423.4	
24327-08-0	rel-(3aR,4S,7R,7aS)-3a,4,7,7a-Tetrahydro-4,7-ethanoisobenzofuran-1,3-dione	419.15	
2433-14-9	[Bicyclohexyl]-4-ol	369.15	
2433-56-9	1-Hydroxyphenanthrene	429.15	
2433-96-7	Tricosanoic acid	353.65	
2433-97-8	Methyl tricosanoate	327.15	
24331-09-7	2,2,2,2-Propanetetracarbonitrile	405.65	
24331-94-0	1,4-Dihydro-3(2H)-isoquinolinone	420.15	
2434-49-3	Dihydro-6-methyl-2,4(1H,3H)-pyrimidinedione	491.15	
2434-53-9	6-Amino-1-methyluracil	579.65	
24340-76-9	5-Amino-3-methylisothiazole	325.65	
24342-97-0	Tetrachloro-p-xylylenediamine	414.55	
24344-21-6	2,6-Di-1-cyclohexen-1-ylcyclohexanone	352.15	
24345-02-6	Benzenesulfinic acid, 4-methyl-, zinc salt (2:1)	524.15	
24347-58-8	(2R,3R)-Butanediol	292.7	350.5
2435-53-2	o-Chloranil	404.65	
2435-54-3	Tetrabromo-1,2-benzoquinone	422.15	
2435-64-5	4-[2-[4-(Dimethylamino)phenyl]diazenyl]benzenesulfonamide	464.65	
2435-82-7	Biacene	550.15	
2435-85-0	Perhydropyrene	363.65	
24350-74-1	N,N′-1,3-Propanediylbis[2-hydroxybenzamide]	454.65	
24353-61-5	Isocarbophos	317.15	
24356-01-2	Tetrabenzylzirconium	406.65	
24356-94-3	Algestone acetophenide	423.65	
24358-20-1	8-Azoniabicyclo[3.2.1]octane, 3-(3-hydroxy-1-oxo-2-phenylpropoxy)-8-methyl-8-(1-methylethyl)-, bromide, endo-	486.15	
24358-65-4	Benzenepropanamine, N,N-bis(1-methylethyl)-γ-phenyl-, hydrochloride (1:1)	448.65	
24358-84-7	(+)-Mepivacaine	422.15	
2436-04-6	7-Methoxytryptamine	408.65	
2436-29-5	3-Phthalimidopropionaldehyde	392.65	
2436-66-0	3-Methyl-4(3H)-quinazolinone	377.15	
2436-79-5	1H-Pyrrole-2,4-dicarboxylic acid, 3,5-dimethyl-, 2,4-diethyl ester	401.15	
2436-85-3	N,N-Dimethyl-2-naphthalenamine	325.65	578.15
2436-92-2	3,4-Dimethylquinoline	346.65	564.15
2436-93-3	6,8-Dimethylquinoline		541.65
2436-96-6	2,2′-Dinitrobiphenyl	399.15	578.15
24360-05-2	Hexamethylenetetramine hydrochloride	462.15	
2437-03-8	N-Ethyl-2-naphthylamine	509.15	589.65
2437-16-3	5-Hydroxy-1-naphthoic acid	508.65	
2437-23-2	Ammonium laurate	348.15	
2437-25-4	Dodecanenitrile	277.15	550.15
2437-29-8	Malachite green oxalate	411.15	
2437-49-2	2,4,6-Tribromoresorcinol	388.15	
2437-56-1	1-Tridecene	260.15	505.95
2437-66-3	2,3,5-Trimethylbenzoic acid	397.15	
2437-72-1	2,3,4-Trimethylquinoline	365.15	
2437-88-9	1,3,5-Triethoxybenzene	316.65	
2437-98-1	N-Phenyl-N-propylacetamide	322.15	541.15
24376-01-0	Glycine, N,N-diethyl-, hydrochloride (1:1)	398.65	
24379-26-8	Benzoic acid, 2-hydroxy-, triphenylstannyl ester	433.15	
2438-05-3	4-Propylbenzoic acid	416.15	
2438-32-6	Dexchlorpheniramine maleate	387.15	
2438-38-2	Cyclohexanesulfonamide	367.65	
2438-48-4	α,ω-Bis(4-pyridinealdoxime)butane dibromide	518.65	
2438-71-3	5-Bromo-1H-indole-2,3-dione 3-hydrazone	439.15	
2438-72-4	Bufexamac	427.15	
2438-80-4	Fucose	413.15	
2438-88-2	1,2,4,5-Tetrachloro-3-methoxy-6-nitrobenzene	376.15	
2438-90-6	Dimethylthiuram disulfide	376.65	
24380-92-5	3-[(2S)-1-Methyl-2-piperidinyl]pyridine		541.15
24381-49-5	Ethanaminium, 2-hydroxy-N,N,N-trimethyl-, 1,2,3,6-tetrahydro-2,6-dioxo-4-pyrimidinecarboxylate (1:1)	424.65	
2439-01-2	Chinomethionat	445.15	
2439-04-5	5-Hydroxyisoquinoline	505.15	
2439-10-3	Dodine	409.15	
2439-13-6	rel-(2R,6S)-1,2,6-Trimethylpiperidine		325.65
2439-44-3	α-(1-Methylethyl)benzeneacetaldehyde		495.65
2439-54-5	N-Methyloctylamine		351.65
2439-57-8	Tetrahydro-N-methyl-2-furanmethanamine		428.65
2439-77-2	2-Methoxybenzamide	400.65	
2439-83-0	N-Bromocaprolactam	338.15	
2439-85-2	N-Bromophthalimide	473.15	
2439-99-8	Polaris	478.15	
24393-54-2	Ethyl (2E)-3-(2-methoxyphenyl)-2-propenoate	307.4	
24393-66-6	Ethyl 3-(1,3-benzodioxol-5-yl)acrylate	325.15	
24394-09-0	Cnicin	416.15	
24398-88-7	Ethyl 3-bromobenzoate		534.15
244-63-3	β-Carboline	472.15	
244-76-8	9H-Pyrido[2,3-b]indole	483.15	
244-99-5	4-Azafluorene	366.15	579.15
2440-22-4	Drometrizole	405.15	
2440-40-6	Propylmercury chloride	420.15	
2440-42-8	Mercury, ethyliodo-	459.15	
24402-98-0	1,2,3,4,4a,9a-Hexahydro-1,4-methanoanthracene-9,10-dione	387.15	
2441-27-2	Trichloro(1-chloroethenyl)silane	397.65	
2441-41-0	N-Palmitoylglycine	394.15	
24410-52-4	5,6-Dimethylbenzofuran		494.15
2442-49-1	Methyl tetracosanoate	330.55	
24421-05-4	Tetrahydro-1-methyl-2(1H)-pyrimidinethione	403.35	
24425-40-9	5-Aminoindan	310.65	521.15
2443-39-2	9,10-Epoxystearic acid	326.95	
2443-58-5	2-Hydroxyfluorene	441.15	539.45
2443-62-1	Hexanoic acid, hydrazide	388.15	
2443-66-5	Hydroxy(phenyl)acetic acid hydrazide	405.65	
24431-27-4	2-(4-Ethylphenoxy)acetic acid	369.15	
24433-71-4	1-Ethyl-5-phenyl-1H-tetrazole	343.65	
24437-41-0	1-Methyl-1H-pyrrole-2-acetonitrile	301.65	
2444-19-1	1,4-Benzenediol, 1-benzoate	436.65	
2444-28-2	2,6-Di-tert-butylhydroquinone	375.15	
2444-36-2	(2-Chlorophenyl)acetic acid	366.65	
2444-46-4	Nonivamide	331.15	
2444-68-0	9-Vinylanthracene	338.15	
24440-16-2	Benzeneethanimidamide, α-hydroxy-, hydrochloride (1:1)	490.15	
24447-63-0	Didodecylammonium bromide	500.15	
24447-99-2	4-(Methylamino)benzenesulfonic acid	517.65	
24448-20-2	Diacryl	317.65	
24448-94-0	5,5-Dimethyl-2,4,6(1H,3H,5H)-pyrimidinetrione	551.15	
24449-58-9	N-[4-Hydroxy-3-(1-oxo-3-phenyl-2-propen-1-yl)phenyl]acetamide	463.15	
2445-07-0	Bis(dimethylthiocarbamylthio)methyl arsine	417.15	
2445-76-3	Hexyl propanoate	215.65	463.15
2445-78-5	2-Methylbutyl 2-methylbutanoate		458.65
2445-81-0	8-Methoxy-2H-1-benzopyran-2-one	362.15	
2445-82-1	3-Methyl-2H-1-benzopyran-2-one	364.15	565.65
2445-83-2	7-Methylcoumarin	401.15	
24458-48-8	N-(2-Methyl-2-nitropropyl)-4-nitrosobenzenamine	404.65	
24459-40-3	2,12-Dibromocyclododecanone	398.15	
2446-23-3	Oral-Turinabol	423.15	
2446-69-7	4-n-Hexylphenol	302.15	428.15
24460-06-8	2′-Amino-6′-(diethylamino)spiro[isobenzofuran-1(3H),9′-[9H]xanthen]-3-one	452.35	
24463-15-8	1-Pyrenemethanol	396.65	
24465-45-0	4-Piperidinecarboxylic acid, 4-phenyl-, ethyl ester, hydrochloride (1:1)	406.65	
24467-92-3	2,3-Dihydro-6-methoxy-3-oxo-1H-indene-1-acetic acid	421.15	
24468-13-1	2-Ethylhexyl chloroformate		480.15
2447-54-3	Sanguinarine	539.15	