CAS	name	Tm	Tb
2619-95-6	Acetamide, 2-[bis(2-chloroethyl)amino]-, hydrochloride (1:1)	418.15	
26195-62-0	(+)-Isotrilobine	488.15	
26195-68-6	Acetamide, 2-fluoro-N-(5,6,7,9-tetrahydro-1,2,3,10-tetramethoxy-9-oxobenzo[a]heptalen-7-yl)-, (S)-	412.65	
261953-36-0	6-Iodo-1H-indazole	477.15	
26196-04-3	3-Methoxy-2,2-dimethyloxirane	370.15	
26196-45-2	2-Chloro-5-nitro-1,4-benzenediamine	429.65	
262-12-4	Dibenzo[b,e][1,4]dioxin	392.15	
262-20-4	Phenoxathiin	330.9	
2620-05-5	2-Chloro-N-methyl-N-phenylacetamide	343.15	
2620-09-9	N,N′-Bis(chloroacetyl)ethylenediamine	448.15	
2620-44-2	6-Nitro-1,3-benzodioxole	418.15	
2620-53-3	Mephenate	388.65	
2620-62-4	N6-Dimethyladenosine	456.65	
2620-63-5	N-Acetylglycinamide	414.65	
2620-88-4	2,2′-Dithiobis[N-butylbenzamide]	451.65	
2621-46-7	1-Chloro-4-(1-methylethyl)benzene	260.85	471.45
2621-62-7	N-(2,5-Dichlorophenyl)acetamide	406.15	
2621-78-5	Ethyl N-benzylcarbamate	322.15	503.15
2621-79-6	Ethyl N-methyl-N-phenylcarbamate	516.15	
2621-80-9	Carbamic acid, N-(4-chlorophenyl)-, ethyl ester	461.15	340.15
2621-99-0	N-[4-(Aminosulfonyl)phenyl]-2-propenamide	488.15	
26212-80-6	10H-Phenothiazine-10-ethanaminium, N,N,N,α-tetramethyl-, iodide (1:1)	479.65	
26216-91-1	2-Phenylindoline	319.15	
26218-80-4	3-Pyridinecarboxylic acid, 6-methoxy-, methyl ester	321.65	
2622-05-1	Allylmagnesium chloride	623.15	
2622-14-2	Tricyclohexylphosphine	350.15	
2622-21-1	1-Ethenylcyclohexene		418.15
2622-26-6	Periciazine	389.65	
2622-63-1	1-Methyl-2-phenyl-1H-benzimidazole	369.15	
26221-57-8	2,6-Naphthalenedicarboxylic acid, 2,6-dimethyl ester, polymer with 1,4-dimethyl 1,4-benzenedicarboxylate and 1,2-ethanediol	554.25	
26221-69-2	Ethylene-1-pentene copolymer	397.95	
26221-73-8	Ethylene-1-octene copolymer	395.65	
26222-20-8	Decanedioic acid, polymer with 1,2-propanediol	330.15	
26225-79-6	Ethofumesate	344.15	
26227-54-3	Cyclohexanamine, hydrobromide (1:1)	469.65	
2623-22-5	15-Acetoxyscirpenol	444.15	
2623-23-6	(-)-Menthyl acetate		502.65
2623-33-8	p-Acetoxyacetanilide	425.15	
2623-45-2	2-Chloro-1-(2,4-dimethylphenyl)ethanone	335.65	
2623-50-9	5,8-Dimethylquinoline	277.65	539.15
2623-84-9	2-Bromoundecanoic acid	283.15	
2623-86-1	3-Bromobutanoic acid	317.15	
2623-87-2	4-Bromobutanoic acid	315.4	
2623-91-8	D-α-Aminobutyric acid	562.15	
2623-95-2	2-Bromodecanoic acid	277.15	
262352-17-0	Torcetrapib	329.15	
2624-43-3	Cyclofenil	408.65	
2624-44-4	Etamsylate	398.15	
26247-20-1	Poly(butylene succinate)	391.15	
26248-42-0	Tridecanol	303.65	
26248-43-1	Dihydroxystearic acid	381.15	
26249-12-7	Dibromobenzene		493.15
26249-20-7	Butylene oxide		334.15
26249-22-9	1,3-Benzenedicarboxylic acid, polymer with (2E)-2-butenedioic acid and 1,2-propanediol	337.65	
2625-29-8	2,2-Dimethyl-1-nitrobutane		442.15
2625-60-7	Pregna-4,11-diene-3,20-dione	449.15	
26254-05-7	Hydrazine, 1,2-bis(1-methylethyl)-, hydrochloride (1:1)	471.15	
26254-92-2	2-Ethyl-3-methylbutanal	403.15	
26258-70-8	1,1′-(2-Nitropropylidene)bis[4-ethoxybenzene]		423.15
26259-45-0	Secbumeton	360.15	
2626-81-5	Phenol, 2-(1,1-dimethylethyl)-, 1-(N-methylcarbamate)	369.15	
26260-02-6	2-Iodobenzaldehyde	309.15	
26264-09-5	Chlorobenzoic acid	511.15	
26266-80-8	1,6-Hexanediol-isophthalic acid-terephthalic acid copolymer	384.15	
2627-35-2	Monolauryl phosphate	342.15	
2627-69-2	AICAr	486.15	
2627-86-3	(S)-1-Phenylethylamine	441.65	458.15
2627-95-4	1,3-Divinyltetramethyldisiloxane	173.45	312.15
26278-79-5	2-Amino-6-benzothiazolol	520.15	
2628-17-3	4-Vinylphenol	346.65	421.65
2629-55-2	DL-2-Fluorophenylalanine	531.9	
2629-59-6	S-Ethyl-L-cysteine	533.15	
2629-72-3	4-Pyridinepropanol	310.15	562.15
26293-35-6	1-Butanol, 2-amino-, (2S)-, (2R,3R)-2,3-dihydroxybutanedioate (1:1)	416.65	
26301-26-8	1,3-Benzenedicarboxylic acid, polymer with 2,5-furandione and 1,2-propanediol	340.65	
26301-79-1	D-Mannono-1,4-lactone	393.15	
26305-13-5	5,6-Dimethyluracil	568.15	
2631-37-0	Promecarb	360.4	
2631-39-2	Phenol, 3-(dimethylamino)-, 1-(N-methylcarbamate)	359.65	
2631-40-5	Isoprocarb	367.15	401.65
2631-68-7	1,3,5-Trichloro-2,4,6-trinitrobenzene	466.15	591.15
2631-72-3	2,4-Dichlorophenacyl bromide	304.15	
2631-77-8	3,5-Diiodosalicylaldehyde	381.15	
26311-45-5	4-Pentylbenzoic acid	361.15	
26316-43-8	1H-Pyrrole-2,5-dione, 1-phenyl-, polymer with ethenylbenzene	595.65	
2632-13-5	4-Methoxyphenacyl bromide	345.65	
26322-14-5	Dicetyl peroxydicarbonate	325.15	
26328-04-1	Cinepazide maleate	408.15	
26328-53-0	Amoscanate	470.15	
26332-10-5	5-(1,3-Benzodioxol-5-ylmethyl)-5-methyl-2,4-imidazolidinedione	466.15	
26335-33-1	Formaldehyde, polymer with 4-octylphenol	353.15	
26339-42-4	rel-(3aR,6aS)-Dihydro-1,3-bis(phenylmethyl)-1H-furo[3,4-d]imidazole-2,4,6(3H)-trione	509.65	
2634-33-5	1,2-Benzisothiazol-3(2H)-one	430.65	
26340-89-6	L-Arginine, methyl ester, hydrochloride (1:2)	466.15	
26342-66-5	Rhodojaponin III	559.15	
26348-61-8	L-Serine, ethyl ester, hydrochloride (1:1)	403.15	
26348-70-9	L-Lysine, methyl ester, hydrochloride (1:2)	484.65	
2635-26-9	Diazene, 1,2-bis[4-(heptyloxy)phenyl]-, 1-oxide	396.65	
2635-75-8	Benzo[b]thiophene-4-acetic acid	420.4	
26354-94-9	Poly-δ-valerolactone	324.95	
26358-75-8	(1α,3β)-Cholest-5-ene-1,3-diol	435.4	
2636-26-2	Cyanophos	287.65	392.65
2636-88-6	Phosphine, tricyclohexyl-, compd. with carbon disulfide (1:1)	391.15	
2636-91-1	(2α)-2-Methylpregn-4-ene-3,20-dione	419.65	
26364-65-8	N-(4,5-Dihydro-2-thiazolyl)cyanamide	429.65	
26367-75-9	2,2-Dichloro-N-[1-(hydroxymethyl)-2-(4-nitrophenyl)-2-oxoethyl]acetamide	396.65	
2637-34-5	2-Mercaptopyridine	402.15	
2637-37-8	2(1H)-Quinolinethione	460.15	
26370-28-5	2,6-Nonadienal	430.15	
26371-07-3	1-Piperidinepropanoic acid	355.65	
263717-53-9	Propyl pyrazole triol	503.15	
26375-31-5	Ethylene-methacrylic acid-vinyl acetate copolymer	383.15	
26377-17-3	4-Pyridinepropanoic acid, β-oxo-, ethyl ester	435.15	
26377-76-4	Carbamimidothioic acid, 1H-indol-3-yl ester, hydriodide (1:1)	493.65	
26378-73-4	2,4,6-Trichlororesorcinol	356.15	
2638-94-0	4,4-Azobis(4-cyanovaleric acid)	394.65	
26385-07-9	N-(2-Chloroethyl)benzamide	378.15	
2639-63-6	Hexyl butyrate	195.15	481.15
26391-06-0	2-Cyano-N,N-diethylacetamide	394.15	
26395-29-9	Ethyne, bromoiodo-	289.05	
26399-36-0	Profluralin	307.65	
26402-22-2	Monocaprin	320.15	
26402-26-6	Glyceryl monocaprylate	305.15	
26404-66-0	Peroxynitric acid	195.15	
2641-34-1	2,3,3,3-Tetrafluoro-2-[1,1,2,3,3,3-hexafluoro-2-(1,1,2,2,3,3,3-heptafluoropropoxy)propoxy]propanoyl fluoride		388.15
2641-56-7	Octanoic acid, 1,1′-(diethylstannylene) ester	448.15	
2641-89-6	2,3,5,6-Tetrabromo-1,4-benzenediol	517.15	
26411-30-3	2,2′-Thiobis[4,6-bis(1,1-dimethylethyl)-3-methylphenol]	479.65	
26414-86-8	2-Pyridineethanethioamide	361.65	
26414-87-9	2-Pyridineethanethioamide, hydrochloride (1:1)	467.15	
2642-25-3	Quinolinium, 1-ethyl-4-[3-(3-ethyl-2(3H)-benzothiazolylidene)-1-propen-1-yl]-, iodide (1:1)	536.65	
2642-63-9	3′,4′-Dichloroacetophenone	349.15	
2642-71-9	Azinphos-ethyl	326.15	
2642-80-0	1-Chloro-2,2-bis(p-chlorophenyl)ethane	324.4	
2642-81-1	1,1-Bis(4-chlorophenyl)ethene	357.65	
2642-82-2	4-Chloro-β-(4-chlorophenyl)benzeneethanol	368.15	
2642-98-0	6-Aminochrysene	483.65	
26425-79-6	Perfluoro(methyl vinyl ether)-tetrafluoroethylene copolymer	483.15	
2643-14-3	Benzeneethanamine, 3,4-dichloro-α-methyl-, hydrochloride (1:1)	461.65	
2643-85-8	(+)-Oxypeucedanin hydrate	409.15	
26438-26-6	1-Nonylnaphthalene	281.15	639.15
2644-21-5	Glycine, N,N-diethyl-, ethyl ester		450.15
2644-64-6	1,2-Dipalmitoylphosphatidylcholine	463.15	
2644-70-4	Hydrazinium chloride	361.15	
2644-96-4	Glycine, N-(4-nitrobenzoyl)-, methyl ester	428.65	
26443-03-8	Estra-1,3,5(10)-triene-3,17-diol (17β)-, 17-benzenepropanoate	393.15	
26444-39-3	Hentriacontanol	358.15	
26444-49-5	Cresyl diphenyl phosphate		663.15
26446-12-8	Octadecen-1-ol	275.65	
26446-35-5	Monoacetin	195.15	
26447-28-9	Furoic acid	406.65	
2645-07-0	4-Nitrohippuric acid	404.15	
2645-08-1	N-Benzoyl-L-arginine ethyl ester hydrochloride	395.15	
2645-22-9	4,4′-Dithiodipyridine	428.15	
26450-58-8	1,1-Dimethoxypentane		397.65
26452-80-2	2,4-Dichloropyridine	273.15	457.15
26456-63-3	3-Ethenyl-1,4-pentadiene		350.15
2646-15-3	Oil Blue N	386.65	
2646-17-5	Orange OT	404.15	
2646-30-2	N-(4-Bromophenyl)thiourea	496.15	
2646-91-5	2,3-Difluorobenzaldehyde	337.65	
26464-06-2	2-Ethylbutanoyl bromide		428.65
26471-52-3	1,3-Benzenedicarboxylic acid, 5-sulfo-, 1,3-bis(2-hydroxyethyl) ester, sodium salt (1:1), polymer with 1,4-benzenedicarboxylic acid and 1,2-ethanediol	448.35	
26471-62-5	Toluene diisocyanate	293.15	524.15
26472-41-3	Humulone	338.9	
26475-39-8	1,4-Oxathiane, 2-methyl-, 4,4-dioxide	355.15	
2648-51-3	3,3-Dichloro-2-propenal		397.65
2648-61-5	2,2-Dichloroacetophenone	293.65	522.15
26485-72-3	1,2,4-Triphenyl-3,5-pyrazolidinedione	457.65	
26485-73-4	1,2-Diphenyl-4-(phenylmethyl)-3,5-pyrazolidinedione	410.15	
26486-93-1	2,3-Dihydro-3-hydroxy-1H-isoindol-1-one	443.15	
26487-67-2	1H-Azepine, 1-(2-chloroethyl)hexahydro-, hydrochloride (1:1)	481.15	
26488-93-7	2-Acetylamino-4-chlorophenol	459.15	
2649-76-5	Pregna-3,5-diene-21-carboxylic acid, 3-ethoxy-17-hydroxy-, γ-lactone, (17α)-	448.15	
26494-10-0	4-Hydroxy-2,5-dimethyl-3(2H)-thiophenone	351.15	
26494-77-9	4-Thiomorpholinamine, 3-methyl-, 1,1-dioxide	388.15	
26495-91-0	N-[(Triethoxysilyl)methyl]cyclohexanamine		509.15
26496-20-8	4-Tetradecanone	297.65	
26496-94-6	Ethyl 4-bromomethylbenzoate	308.65	
26496-99-1	Phenol, 2,4-dichloro-, carbonate (2:1)	370.65	
26499-65-0	Plaster of Paris	436.15	
2650-30-8	Hexanoic acid, 3,5,5-trimethyl-, sodium salt (1:1)	853.15	
2650-50-2	1-Propanaminium, N,N,N-trimethyl-, bromide (1:1)	515.9	
2650-64-8	N2-[(Phenylmethoxy)carbonyl]-L-glutamine	409.65	
2650-77-3	Ethyltrimethylammonium bromide	596.95	
26501-54-2	Tetrabutylammonium nitrite	380.15	
26504-29-0	Dibenzyltrithiocarbonate	301.15	
265136-65-0	Ethyl 3-amino-4-[2-(1,3-dihydro-1,3-dioxo-2H-isoindol-2-yl)ethoxy]-2-butenoate	362.15	
26519-91-5	Methylcyclopentadiene	345.15	344.65
2652-13-3	1,1,1,3,3,5,5,7,7,9,9,11,11,13,13,15,15,17,17,17-Eicosamethylnonasiloxane		580.65
2652-77-9	1,2-Diphenyl-3,5-pyrazolidinedione	451.15	
26523-14-8	Adipic acid-ethylene glycol-propylene glycol copolymer	333.15	
26523-64-8	Trichlorotrifluoroethane	273.15	319.65
2653-39-6	2-[(4-Ethenylphenoxy)methyl]oxirane	303.15	
2653-64-7	1-[2-(1-Naphthalenyl)diazenyl]-2-naphthalenol	503.15	
26530-20-1	2-n-Octyl-4-isothiazolin-3-one		393.15
26533-35-7	3-Methyl-4-octanol		453.15
26533-36-8	2-Nonadecanol	321.65	
26538-44-3	Zeranol	420.15	
2654-52-6	Benzothiazolium, 2,3-dimethyl-, 4-methylbenzenesulfonate (1:1)	459.15	
2654-57-1	4-Methyl-1-phenyl-3-pyrazolidone	415.9	
26541-51-5	4-Nitrosothiomorpholine	309.15	
26543-09-9	L-Arabinaric acid, 2-deoxy-2-methyl-3,4-di-C-methyl-, 1,4-lactone	454.65	
26544-17-2	Diisooctyl azelate	333.15	
26544-34-3	Apiin	505.65	
26545-73-3	Dichlorohydrin	390.15	
26545-74-4	Monolinolein	287.65	
26547-47-7	2-[2-(1,1-Dimethylethoxy)ethoxy]-2-methylpropane	221.15	444.15
26547-51-3	8-Phenyloctanoic acid	297.65	
26548-70-9	(αE)-α-(3-Hydroxy-5-oxo-4-phenyl-2(5H)-furanylidene)benzeneacetic acid	485.65	
2655-14-3	3,5-Xylyl methylcarbamate	372.15	
2655-15-4	2,3,5-Trimethacarb	396.65	
2655-19-8	3,5-Bis(1,1-dimethylethyl)phenol methylcarbamate	376.05	
2655-27-8	N-Pentylbenzenamine		555.65
2655-83-6	1-Chloro-3-ethoxybenzene		480.15
26553-34-4	Benzeneacetic acid, α-[[(2,2,2-trichloroethoxy)carbonyl]amino]-, (R)-	416.15	
2656-08-8	Methanimidamide, N′-(3-hydroxyphenyl)-N,N-dimethyl-, hydrochloride (1:1)	514.15	
26566-61-0	dl-Galactose	433.15	
26567-10-2	3,3′,5,5′-Tetramethyl[1,1′-biphenyl]-2,2′-diol	407.15	
2657-85-4	4-Amino-N-(3-aminophenyl)benzamide	450.65	
2657-87-6	3,4′-Diaminodiphenyl ether	345.15	
26570-73-0	Hexanedioic acid, polymer with 1,4-butanediol and 1,2-ethanediol	293.15	
26570-85-4	Cyclohexylphenol	401.15	
26572-08-7	Nylon 66-nylon 610 copolymer	473.15	
26574-59-4	1-Chloro-4-[(2-chloro-1,1,2-trifluoroethyl)sulfonyl]benzene	327.65	
2658-24-4	2,2-Dimethylaziridine		342.65
26582-86-5	N-[(Phenylmethoxy)carbonyl]-L-serine hydrazide	454.15	
26585-74-0	(1R)-2,2,3-Trimethyl-3-cyclopentene-1-acetonitrile		498.15
26587-37-1	Oxirane, 2-(chloromethyl)-, polymer with oxirane and 2-[(2-propen-1-yloxy)methyl]oxirane	307.15	
26589-39-9	Methacrylic acid-methyl acrylate copolymer	324.97	
26590-20-5	Methyltetrahydrophthalic anhydride	336.65	
26590-75-0	1,3-Propanediol-terephthalic acid copolymer	503.15	
26590-78-3	1,4-Benzenedicarboxylic acid, polymer with 2,2-dimethyl-1,3-propanediol	368.15	
26592-09-6	N,N′-(Methylenedi-4,1-phenylene)bis[3-oxobutanamide]	441.9	
26607-48-7	1,2-Pyrrolidinedicarboxylic acid, 1-(phenylmethyl) ester, compd. with N-cyclohexylcyclohexanamine (1:1), (2S)-	452.15	
26615-21-4	Zotepine	363.65	
26616-35-3	(Vinylbenzyl)trimethylammonium chloride	421.65	
26619-69-2	Isolongifolene epoxide	313.15	
26626-12-0	(5α,6β)-4,5-Epoxy-17-methylmorphinan-3,6-diol	498.15	
26628-22-8	Sodium azide	548.15	
26628-47-7	9-(Diethylamino)spiro[12H-benzo[a]xanthene-12,1′(3′H)-isobenzofuran]-3′-one	492.15	
26628-87-5	3-[2-(1-Piperidinyl)ethyl]-1H-indole	423.65	
26628-88-6	N,N-Diethyl-2-methyl-1H-indole-3-ethanamine	481.15	
26629-86-7	Oxaflozane hydrochloride	437.15	
26635-64-3	Isooctane	168.15	372.15
266359-83-5	Repertaxin	377.15	
26637-68-3	Perfluorodimethylcyclohexane		374.55
26638-19-7	Propane dichloride	206.05	368.25
2664-42-8	N,N-Dimethyloleamide	265.15	
2664-61-1	3,3′,3′′-Nitrilotris[propanamide]	450.65	
2664-63-3	4,4′-Thiodiphenol	428.15	
26644-46-2	Triforine	428.15	
26645-10-3	Bromodiethylgold	331.15	
26648-11-3	Hydrazinecarbodithioic acid, monopotassium salt	339.65	
2665-28-3	2-Chloro-1-(2,4,5-trichlorophenyl)ethenyl diethyl phosphate	353.4	
2665-30-7	Phosphonothioic acid, methyl-, O-(4-nitrophenyl) O-phenyl ester	352.4	
26650-09-9	Thiocyanic acid, 3,3,4,4,5,5,6,6,7,7,8,8,8-tridecafluorooctyl ester	313.65	
26651-23-0	1-Pyrenesulfonic acid	389.65	
26651-96-7	Methylpseudoionone	405.15	
26652-09-5	Ritodrine	362.15	
26654-39-7	4,4-Dimethyl-2-oxazolidinone	328.65	
26655-00-5	Perfluoro(propyl vinyl ether)-tetrafluoroethylene copolymer	578.15	
26657-95-4	Dipalmitin	344.95	
26657-96-5	Monopalmitin	345.9	
26662-91-9	POPC	271.15	
26662-94-2	1-Palmitoyl-2-oleoyl-sn-glycero-3-phosphoethanolamine	297.85	
2667-20-1	Carbonodithioic acid, O-methyl ester, potassium salt	510.15	
2667-89-2	Bisbentiamine	419.65	
26672-58-2	1-[4-(Dimethylamino)phenyl]-1-propanone	376.15	544.15
26675-46-7	Isoflurane	321.65	321.65
26677-99-6	Acrylic acid-maleic anhydride copolymer	389.15	
2668-24-8	4,5,6-Trichloroguaiacol	384.65	
2668-47-5	3,5-Bis(1,1-dimethylethyl)[1,1′-biphenyl]-4-ol	374.65	
2668-66-8	Medrysone	429.65	
2668-74-8	17-(Acetyloxy)pregna-1,4-diene-3,20-dione	502.65	
2668-75-9	17-(Acetyloxy)pregna-1,4,6-triene-3,20-dione	468.65	
26680-10-4	Poly(DL-lactide)	488.15	
26684-57-1	3-(4-Pyridinyl)-1,5-pentanediol	338.15	
26685-83-6	(1R,2R)-2-Aminocyclohexanecarboxylic acid	507.65	
2669-15-0	Terephthaloylbiscaprolactam	465.15	
2669-32-1	Lythidathion	323.65	
2669-72-9	1,3-Bis(methoxymethyl)-2-imidazolidinone	312.15	
2669-94-5	6-Hydroxy-3,4-dihydrocoumarin	435.65	
26692-07-9	1,3-Diethyl 2-[[[4-(decyloxy)-3-ethoxyphenyl]amino]methylene]propanedioate	312.15	
26699-73-0	1,2,3-Propanetriol, monobenzoate	309.15	
267-48-1	5H-1,3-Dioxolo[4,5-f]indole	383.15	
2671-68-3	Lanosterol acetate	386.65	
26717-47-5	Clofibride	307.15	
26717-54-4	4-(4-Chlorophenyl)dihydro-2(3H)-furanone	327.15	
26717-67-9	1,3-Dimethyl 2-ethylpropanedioate		451.65
26718-90-1	1-Methylethyl eicosanoate	327.15	
26719-07-3	Acetic acid, chloro-, mercury(2+) salt		413.15
26719-27-7	Hexanedioic acid, 1,6-diheptadecyl ester	334.95	
26719-91-5	1,5-Didodecyl pentanedioate	313.9	
2672-58-4	Trimethyl 1,3,5-benzenetricarboxylate	416.65	
2672-85-7	4-Ethyl-4-methyl-5-thioxo-2-imidazolidinone	505.65	
2672-88-0	β-Alanylglycine	503.15	
26720-19-4	Hexanedioic acid, 1,6-ditetradecyl ester	322.55	
26720-20-7	Hexanedioic acid, 1,6-dipentadecyl ester	328.15	
26720-21-8	1,6-Dihexadecyl hexanedioate	330.45	
26724-10-7	7H-Isobenzofuro[4,5-b][1,4]benzodioxepin-11-carboxaldehyde, 1,3-dihydro-1-hydroxy-10-methoxy-5,8-dimethyl-3,7-dioxo-	545.15	
26725-51-9	4-Hydroxybenzotriazole	489.65	
2673-40-7	Perivine	453.65	
26730-14-3	7-Methyltridecane	235.95	
26730-92-7	1,1′-(1,6-Hexanediyl) dioctadecanoate	311.65	
26734-09-8	3-Amino-2,2-dimethyl-1-propanol	372.15	
26739-53-7	Octadecanoic acid, compd. with guanidine (1:1)	368.15	
26739-54-8	Guanidine, benzoate (1:1)	498.65	
26741-53-7	Bis(2,4-di-tert-butylphenyl) pentaerythritol diphosphite	451.15	
26745-88-0	Hexanediol-sebacic acid copolymer	338.15	
26749-90-6	4-Cyclodecen-1-one		509.15
2675-77-6	1,4-Dichloro-2,5-dimethoxybenzene	407.15	541.15
2675-79-8	1-Bromo-3,4,5-trimethoxybenzene	385.15	
2675-89-0	2-Chloro-N,N-dimethylacetamide	288.65	
2675-94-7	N,N-Diethylacrylamide		377.15
26750-50-5	1,1′-[Oxybis(methylenesulfonyl)]bis[ethene]	315.15	
26750-81-2	Alibendol	368.15	
26754-48-3	Terpenylic acid	363.15	
26759-46-6	Benzoic acid, 2-amino-4,5-dimethoxy-, methyl ester	403.15	
26759-50-2	2-[(Carboxymethyl)thio]-5-nitrobenzoic acid	489.15	
26759-52-4	Methyl 3-hydroxy-5-nitrobenzo[b]thiophene-2-carboxylate	494.85	
2676-59-7	3,3′,4,4′-Tetraaminodiphenyl ether	421.65	
26760-64-5	Methylbutene		312.15
26761-40-0	Diisodecyl phthalate	223.15	526.65
26762-91-4	Tribromo(2-propen-1-yloxy)benzene	350.15	
26764-26-1	Octadecenoic acid	341.15	
26771-06-2	(1S,3R)-2,2-Dimethyl-3-(2-methyl-1-propen-1-yl)cyclopropanecarboxylic acid	315.15	
26771-11-9	(1R,3S)-2,2-Dimethyl-3-(2-methyl-1-propen-1-yl)cyclopropanecarboxylic acid	314.15	
26772-92-9	N-(1-Methylethyl)-N-(3-methylphenyl)urea	363.15	
26773-65-9	2-(1-Piperidinylthio)benzothiazole	353.15	
26776-26-1	Hexanedioic acid, homopolymer	339.65	
26777-62-8	Nylon 6/66/12	384.15	
2678-21-9	1,3-Dinitro-2,4,5-trichlorobenzene	376.15	
26780-49-4	1,4-Benzenedicarboxylic acid, polymer with 2,2-dimethyl-1,3-propanediol and 1,2-ethanediol	494.15	
26780-96-1	2,2,4-Trimethyl-1,2-dihydroquinoline polymer	365.15	
26782-43-4	(3Z,5R,6S,14aR,14bS)-3-Ethylidene-2,3,4,5,6,7,9,11,13,14,14a,14b-dodecahydro-6,14b-dihydroxy-6-(hydroxymethyl)-5,12-dimethyl-2,7-dioxo[1,6]dioxacyclododecino[2,3,4-gh]pyrrolizinium	397.65	
26786-32-3	Ethanone, 1-(4-chlorophenyl)-2-[[3-(10,11-dihydro-5H-dibenz[b,f]azepin-5-yl)propyl]methylamino]-, hydrochloride (1:1)	426.15	
26787-78-0	Amoxicillin	413.15	
2679-26-7	Isoquinolinium, 1-[(3,4-dimethoxyphenyl)methyl]-6,7-dimethoxy-2-methyl-, iodide (1:1)	338.15	
2679-36-9	1-Propanone, 3-[(1,1-dimethylethyl)amino]-1-phenyl-, hydrochloride (1:1)	480.15	
2679-87-0	sec-Butyl ethyl ether		354.15
26791-93-5	Benzoic acid, 4,5-dimethoxy-2-nitro-, methyl ester	371.65	
26791-94-6	2-[(Carboxymethyl)thio]-4,5-dimethoxybenzoic acid	502.65	
268-77-9	Naphtho[2,3-b]thiophene	462.15	
2680-03-7	N,N-Dimethylacrylamide	373.15	363.15
26807-65-8	Indapamide	434.15	
26810-06-0	Ethylene glycol-isophthalic acid copolymer	468.15	
26811-96-1	Poly(L-lactic acid)	432.15	
26816-07-9	Propanedinitrile, 2-(hydroxyimino)-, potassium salt (1:1)	481.15	
2682-20-4	Methylisothiazolinone	323.65	
2682-45-3	2-Methylnaphtho[1,2-d]thiazole	369.15	
2682-49-7	2-Thiazolidinone	327.15	
26820-61-1	5-Nitro-2-(1-piperidinyl)pyridine	357.15	
26820-62-2	2-Morpholino-5-nitropyridine	415.95	
26825-83-2	1-Iodoheptadecane	307.28	
26825-94-5	Decanoic acid, 10-bromo-, methyl ester	264.85	
2683-43-4	2,4-Dichloro-6-nitroaniline	375.15	
2683-56-9	4-(Diethylamino)-1-butanol		364.15
2683-90-1	3,6-Dihydro-7H-1,2,3-triazolo[4,5-d]pyrimidin-7-one	605.15	
26830-95-5	4-Methyl-2-nitrobenzonitrile	369.15	408.65
26830-96-6	2-Amino-4-methylbenzonitrile	332.65	
26831-90-3	N-(2-Hydroxyethyl)-N-(2-hydroxypropyl)-4-methylbenzenesulfonamide	340.35	
26839-75-8	Timolol	345.15	
2684-62-0	1-Diazo-2-propanone	323.15	
26844-12-2	Indoramin	482.15	
26848-40-8	N-(2,3-Dihydro-2-oxo-1H-benzimidazol-5-yl)-3-hydroxy-2-naphthalenecarboxamide	633.15	
26848-70-4	2-Propen-1-aminium, N-methyl-N,N-di-2-propen-1-yl-, chloride (1:1)	523.15	
26848-77-1	P,P-Bis(4-aminophenyl)phosphinic acid	490.15	