CAS	name	Tm	Tb
1194-98-5	2,5-Dihydroxybenzaldehyde	550.15	
119413-54-6	Topotecan hydrochloride	488.15	
119446-68-3	Difenoconazole	349.15	
1195-09-1	2-Methoxy-5-methylphenol	308.65	490.65
1195-14-8	2-Methylbenzothiophene	535.15	379.65
1195-16-0	Citiolone	385.15	
1195-31-9	(+)-p-Menth-1-ene		446.15
1195-32-0	p-Cymenene	253.15	458.45
1195-40-0	2-Pyridinecarboxaldehyde, 6-methyl-, oxime	439.65	
1195-42-2	Isopropylcyclohexylamine		443.15
1195-52-4	3-(3-Thienyl)acrylic acid	422.65	
1195-58-0	3,5-Pyridinedicarbonitrile	386.4	
1195-59-1	2,6-Pyridinedimethanol	387.65	
1195-79-5	(±)-Fenchone	278.15	465.15
1195-91-1	2-Bromo-5,5-dimethyl-1,3-cyclohexanedione	448.65	
1195-92-2	Limonene oxide		386.65
1195-93-3	2,2,6,6-Tetramethylcyclohexanone	288.15	458.65
119509-24-9	Atpenin A 5	357.15	
119520-05-7	Zilpaterol	450.15	
119584-53-1	Phenylmethyl 2-oxo-3(2H)-benzothiazoleacetate	374.65	
119584-75-7	5-Bromo-2,4-quinazolinediamine	476.15	
1196-00-5	(-)-Isopinocampheol	327.65	
1196-01-6	(S)-Verbenone		500.65
1196-13-0	1,3,5-Trichloro-2-nitrosobenzene	418.65	
1196-29-8	1-(2-Hydroxyphenyl)ethanone oxime	468.15	
1196-30-1	3-Hydroxy-N-methyl-2-pyridinecarboxamide	339.65	
1196-31-2	(1R,4R)-Isomenthone		477.15
1196-57-2	2(1H)-Quinoxalinone	538.15	
1196-67-4	3-Phenyl-2-butenal	366.65	
1196-72-1	N-(2-Hydroxyphenyl)urea	426.65	
1196-79-8	2,5-Dimethylindole	388.45	
119600-43-0	1H-Indolo[3,2,1-de][1,5]naphthyridine-6-carboxylic acid, 3-ethyl-2,3,3a,4-tetrahydro-, methyl ester, hydrochloride (1:1)	467.65	
119644-22-3	935U83	454.15	
119644-23-4	2′,3′-Dideoxy-3′-fluoro-5-iodouridine	432.65	
119691-79-1	4-[(6-Chloro-1H-benzimidazol-2-yl)methyl]benzenamine	450.65	
1197-09-7	3′,4′-Dihydroxyacetophenone	391.65	
1197-19-9	4-(Dimethylamino)benzonitrile	347.15	591.15
1197-21-3	Phentermine hydrochloride	471.15	
1197-22-4	N-Phenylmethanesulfonamide	372.65	
1197-34-8	3,5-Diethylphenol	349.65	521.15
1197-37-1	4-Ethoxy-1,2-benzenediamine	344.65	568.15
1197-40-6	2,2′-Methylenedifuran	346.15	
1197-50-8	Benzenepropanal, oxime	375.65	
1197-51-9	N-2-Propyn-1-ylbenzenemethanamine	436.15	
1197-55-3	4-Aminophenylacetic acid	473.15	
1197-60-0	2-Furanmethanaminium, N,N,N,5-tetramethyl-, iodide (1:1)	434.65	
119738-06-6	Quizalofop-tefuryl	337.15	
1198-14-7	5-Bromo-8-hydroxyquinoline	397.15	
1198-27-2	1-Amino-2-naphthol hydrochloride	525.15	
1198-30-7	1-Isoquinolinecarbonitrile	362.4	
1198-37-4	2,4-Dimethylquinoline		538.15
1198-47-6	6-Methylthioguanine	512.15	
1198-55-6	Tetrachlorocatechol	467.15	
1198-61-4	1,3-Dichloro-2,4,5,6-tetrafluorobenzene	276.35	428.4
1198-63-6	2,4,5,6-Tetrafluoro-1,3-benzenediamine	401.65	
1198-64-7	2,3,5,6-Tetrafluoro-1,4-benzenediamine	417.4	
1198-83-0	2-(Methylthio)adenine	568.65	
1198-84-1	(±)-4-Hydroxymandelic acid	378.65	
1198-97-6	4-Phenyl-2-pyrrolidinone	333.15	
119804-96-5	2′-Deoxy-2′-methylenecytidine	465.15	
1199-01-5	Azlactone	445.15	
1199-02-6	5-Phenyl-1,3,4-oxadiazol-2(3H)-one	411.15	
1199-03-7	2,3-Dimercaptoquinoxaline	618.15	
1199-20-8	β-Methylcinnamic acid	335.15	
1199-36-6	1-Chloro-4-(methylthio)-2-nitrobenzene	344.15	
1199-46-8	2-Amino-4-tert-butylphenol	434.15	
1199-59-3	4-(Dimethylamino)-2-methylbenzaldehyde	342.65	
1199-77-5	α-Methylcinnamic acid	353.15	
119914-24-8	1,3-Bis(1-hydroxy-2,2-dimethoxyethyl)-2-imidazolidinone	400.15	
119914-60-2	Grepafloxacin	463.65	
120-00-3	Fast Blue BB	374.15	
120-05-8	Sulfuretin	576.15	
120-06-9	1,2,3-Oxadiazolium, 5-hydroxy-3-phenyl-, inner salt	408.65	
120-07-0	N-Phenyldiethanolamine	330.15	473.15
120-08-1	Scoparone	418.65	
120-11-6	Benzyl isoeugenol	322.15	
120-12-7	Anthracene	491.15	615.15
120-13-8	4-Ethoxy-3-methoxybenzeneacetic acid	457.15	
120-14-9	3,4-Dimethoxybenzaldehyde	316.15	554.15
120-15-0	6-Methoxy-1,2,3,4-tetrahydroquinoline	315.65	557.15
120-18-3	2-Naphthalenesulfonic acid	364.15	
120-20-7	3,4-Dimethoxyphenethylamine	397.15	437.15
120-21-8	4-(Diethylamino)benzaldehyde	314.15	
120-22-9	N,N-Diethyl-4-nitrosoaniline	360.65	
120-23-0	2-Naphthoxyacetic acid	429.15	
120-25-2	4-Ethoxy-3-methoxybenzaldehyde	337.65	
120-26-3	(±)-3,4-Dimethoxyamphetamine	312.65	
120-29-6	Tropine	337.15	506.15
120-32-1	Chlorophene	321.65	
120-33-2	Ethyl 3-methylbenzoate		507.15
120-34-3	N-[(4-Aminophenyl)sulfonyl]-3,4-dimethylbenzamide	495.65	
120-36-5	Dichlorprop	390.95	
120-40-1	Lauric acid diethanolamide	311.85	
120-43-4	Ethyl 1-piperazinecarboxylate	436.65	510.15
120-44-5	1,2-Bis(4-methoxyphenyl)ethanone	383.15	
120-46-7	Dibenzoylmethane	343.65	493.15
120-47-8	Ethylparaben	389.15	570.65
120-48-9	Benzoic acid, 4-nitro-, butyl ester	308.65	
120-50-3	Isobutyl benzoate		515.15
120-51-4	Benzyl benzoate	294.15	596.65
120-53-6	6-Ethoxy-2-mercaptobenzothiazole	462.15	
120-55-8	Di-O-benzoyldiethylene glycol	245.15	
120-56-9	Ethanol, 2,2′-[1,2-ethanediylbis(oxy)]bis-, 1,1′-dibenzoate	320.15	
120-57-0	1,3-Benzodioxole-5-carboxaldehyde	310.15	536.15
120-58-1	Isosafrole	279.9	525.15
120-59-2	1H-Inden-5-ol, 2,3-dihydro-, 5-(N-methylcarbamate)	337.15	
120-61-6	Dimethyl terephthalate	413.15	561.15
120-66-1	N-(2-Methylphenyl)acetamide	383.15	569.15
120-67-2	2-(2,4-Dichlorophenoxy)ethanol	330.65	
120-70-7	Bis(salicylidene)-1,3-propanediamine	325.15	
120-71-8	2-Methoxy-5-methylaniline	324.65	508.15
120-72-9	Indole	325.15	403.65
120-73-0	Purine	489.65	
120-74-1	5-Norbornene-2-carboxylic acid	306.9	
120-75-2	2-Methylbenzothiazole	287.15	511.15
120-78-5	Accelerator DM	453.15	
120-79-6	N,N′-Dimethyldithiooxamide	414.15	
120-80-9	Catechol	378.15	518.65
120-82-1	1,2,4-Trichlorobenzene	290.15	486.65
120-83-2	2,4-Dichlorophenol	318.15	483.15
120-85-4	1,2,4-Trimethylpiperazine		422.65
120-86-5	N,N′-Bis(2-hydroxyethyl)dithiooxamide	363.15	
120-87-6	9,10-Dihydroxystearic acid	363.15	
120-88-7	N1,N2-Didodecylethanedithioamide	325.65	
120-89-8	Parabanic acid	517.15	
120-92-3	Cyclopentanone	221.85	403.75
120-93-4	2-Imidazolidinone	404.15	
120-94-5	1-Methylpyrrolidine	352.15	354.15
120-95-6	2,4-Di-tert-amylphenol	300.15	442.65
120-97-8	Dichlorphenamide	513.15	
1200-00-6	2-(4-Pyridinylmethylene)hydrazinecarbothioamide	492.15	
1200-03-9	(4-Bromobutoxy)benzene	314.15	
1200-06-2	4-Methoxyphenyl acetate	303.65	
1200-07-3	4-Bromocinnamic acid	530.15	
1200-14-2	4-Butylbenzaldehyde	316.15	
1200-55-1	Pyridinium, 2-[(hydroxyimino)methyl]-1-methyl-, methyl sulfate (1:1)	384.9	
1200-73-3	4-Methyl-4-phenyl-1,3-dioxane	310.65	529.15
1200-89-1	1,4,4a,8a-Tetrahydro-1,4-methanonaphthalene-5,8-dione	348.65	
1200-93-7	3,4-Dihydro-8-hydroxy-3-methylisocoumarin	312.15	
12001-29-5	Chrysotile (Mg3H2(SiO4)2.H2O)	1098.15	
120011-70-3	Donepezil hydrochloride	484.65	
12002-48-1	Trichlorobenzene	313.4	486.4
12002-53-8	Trimedlure		383.15
12002-99-2	Silver telluride (Ag2Te)	1232.15	
120020-26-0	β-Artelinic acid	417.65	
12003-33-7	Aluminum dysprosium oxide (AlDyO3)	2183.15	
12003-38-2	Fluorophlogopite	1656.15	
12003-78-0	Aluminum nickel (AlNi)	1653.15	
12003-81-5	Aluminum, compd. with nickel (1:3)	1660.15	
12004-15-8	Aluminum, compd. with copper (2:1)	695.15	
12005-75-3	Copper arsenide (Cu3As)	573.15	
12006-15-4	Cadmium arsenide (Cd3As2)	994.15	
120068-36-2	Fipronil sulfone	478.65	
120068-37-3	Fipronil	473.65	
12007-02-2	Nickel boride (Ni3B)	1439.15	
12007-89-5	Ammonium boron oxide ((NH4)B5O8)	448.15	
12007-92-0	Sodium pentaborate	1077.15	
120075-43-6	6,7-Bis(1-aziridinyl)-4-[[3-(dimethylamino)propyl]amino]-5,8-quinazolinedione	373.15	
12008-21-8	Lanthanum hexaboride	2988.15	
12008-41-2	Boron sodium oxide (B8Na2O13)	1096.15	
12009-36-8	Barium telluride (BaTe)	313.15	
1201-26-9	Indole-3-acetone	389.15	
1201-27-0	α-Methylbenzo[b]thiophene-3-ethanamine	486.15	
1201-30-5	3,4,5-Trichloro-2-(trichloromethyl)pyridine	372.65	
1201-31-6	2,3,4,5-Tetrafluorobenzoic acid	359.15	
1201-38-3	2′,5′-Dimethoxyacetophenone	294.15	
1201-56-5	(±)-Methylephedrine	337.15	
1201-99-6	3-(2,4-Dichlorophenyl)-2-propenoic acid	508.65	
12010-51-4	Bismuth, compd. with sodium (1:3)	1048.15	
12010-77-4	Bismuth titanium oxide (Bi4Ti3O12)	1476.15	
12011-76-6	Dawsonite (Na[Al(CO3)O].H2O)	673.15	
12013-55-7	Calcium silicide (CaSi)	1588.15	
12013-56-8	Calcium silicide (CaSi2)	1306.15	
12013-62-6	Calcium iron oxide (Ca2Fe2O5)	1721.15	
12013-82-0	Calcium nitride (Ca3N2)		1468.15
12014-29-8	Antimony, compd. with cadmium (2:3)	683.15	
12014-50-5	Cerium, compd. with iron (1:2)	1198.15	
12015-53-1	Chlorine oxide (Cl2O7)	181.65	
120162-55-2	Azimsulfuron	443.15	
12017-12-8	Cobalt silicide (CoSi2)	1600.15	
12018-09-6	Chromium silicide (CrSi2)	1743.15	
12018-17-6	Chromium, compd. with niobium (2:1)	2013.15	
12018-68-7	Antimony, compd. with cesium (1:3)	998.15	
12019-57-7	Copper phosphide (Cu3P)	1293.15	
1202-04-6	Methyl 1H-indole-2-carboxylate	423.8	
1202-08-0	1-[2-Methyl-5-(1-methylethyl)phenyl]ethanone		522.65
1202-25-1	Methyl 4-(dimethylamino)benzoate	510.65	
1202-34-2	2,2′-Dipyridylamine	363.65	580.65
1202-39-7	3,4-Dichlorocinnamic acid	490.85	
1202-66-0	N-Acetyltyramine	442.15	
12020-60-9	Europium oxide (EuO)	2253.15	
12020-69-8	Europium telluride (EuTe)	2456.15	
12022-95-6	Iron silicide (FeSi)	1683.15	
12023-22-2	Iron, compd. with niobium (2:1)	1903.15	
12023-40-4	Iron, compd. with titanium (2:1)	1753.15	
120239-62-5	3,3′,3′′,3′′′-(1,4-Butanediyldinitrilo)tetrakis[propanenitrile]	325.95	
12024-11-2	Gallium selenide (GaSe)	1211.15	
12024-21-4	Gallium sesquioxide	2013.15	
12024-22-5	Gallium sulfide (Ga2S3)	1251.15	
12024-24-7	Gallium selenide (Ga2Se3)	1293.15	
12025-19-3	Germanium sodium oxide (GeNa2O3)	356.15	
12025-34-2	Germanium sulfide (GeS2)	1098.15	
12025-39-7	Germanium telluride (GeTe)	998.15	
12026-57-2	12-Molybdophosphoric acid	446.15	
12027-05-3	Hafnium hydroxide (Hf(OH)4), (T-4)-	730.65	
12027-06-4	Ammonium iodide	824.15	
120277-90-9	α-[(2-Nitro-1H-imidazol-1-yl)methyl]-7-azabicyclo[4.1.0]heptane-7-ethanol	361.65	
1203-24-3	(o-Chlorophenyl)maleimide	332.65	
1203-68-5	[1,1′-Biphenyl]-2-carboxaldehyde	475.15	
12030-24-9	Indium sulfide (In2S3)	1323.15	
12030-85-2	Niobium potassium oxide (NbKO3)	1373.15	
12030-88-5	Potassium superoxide	783.15	
12031-63-9	Lithium niobium oxide (LiNbO3)	1540.15	
12031-66-2	Lithium tantalum oxide (LiTaO3)	1835.15	
12031-83-3	Zirconate (ZrO32-), lithium (1:2)	993.15	
12032-85-8	Manganese silicide (MnSi)	1816.15	
12032-88-1	Manganese telluride (MnTe)	1450.15	
12032-97-2	Antimony, compd. with manganese (1:2)	1221.15	
12033-89-5	Trisilicon tetranitride	2173.15	
12034-09-2	Sodium niobate (NaNbO3)	1695.15	
12035-50-6	Vaesite (NiS2)	1295.15	
12035-72-2	Nickel sulfide (Ni3S2)	1060.15	
120354-22-5	3-Amino-3,5,6,7,8,9-hexahydro-2-methyl-4H-cyclohepta[4,5]thieno[2,3-d]pyrimidin-4-one	457.15	
12036-22-5	Tungsten oxide (WO2)	1823.15	
12039-34-8	Antimony, compd. with ytterbium (1:1)	1093.15	
12039-35-9	Antimony, compd. with zinc (1:1)	823.15	
12039-52-0	Thallium selenide (TlSe)	613.15	
12039-76-8	Vanadium silicide (V3Si)	2208.15	
12039-87-1	Vanadium silicide (VSi2)	1950.15	
12039-88-2	Tungsten silicide (WSi2)	2338.15	
120398-89-2	2-[(2-Nitro-1H-imidazol-1-yl)methoxy]-1,3-propanediol	361.15	
1204-06-4	Indole-3-acrylic acid	468.65	
1204-21-3	2-Bromo-2′,5′-dimethoxyacetophenone	357.65	
1204-28-0	Trimellitic anhydride chloride	341.15	
1204-29-1	1-Ethyl-2,4-dinitrobenzene	330.55	
1204-38-2	4,7-Dimethyl-2H,5H-pyrano[4,3-b]pyran-2,5-dione	485.15	
1204-60-0	[1,1′-Biphenyl]-3-carboxaldehyde	440.65	
1204-68-8	N,N-Bis(2-chloroethyl)-4-methylbenzenamine	317.15	
1204-72-4	2-Methyl-3-nitronaphthalene	390.65	
1204-75-7	3,4-Dihydro-3-oxo-2-quinoxalinecarboxylic acid	537.15	
1204-78-0	4′-Methyl[1,1′-biphenyl]-4-amine	371.65	
1204-79-1	4′-Amino[1,1′-biphenyl]-4-ol	544.65	
12040-02-7	Tin telluride (SnTe)	1053.15	
12040-16-3	Thallium telluride (Tl2Te3)	700.15	
12041-97-3	Androstenol	438.15	
12042-37-4	Aluminum, compd. with lithium (1:1)	991.15	
12042-65-8	Aluminum, compd. with calcium (2:1)	1352.15	
12043-13-9	Aluminum, compd. with neodymium (2:1)	1723.15	
12043-24-2	Aluminum, compd. with praseodymium (2:1)	1715.15	
12045-63-5	Titanium diboride	3148.15	
12045-64-6	Zirconium diboride	3313.15	
12047-27-7	Barium titanate	305.05	
12048-28-1	Bismuth, compd. with lead (1:1)	397.15	
12048-46-3	Bismuth, compd. with magnesium (2:3)	1096.15	
12049-73-9	Calcium silicide (Ca2Si)	1578.15	
1205-02-3	N-Benzoyl-DL-alanine	438.65	
1205-06-7	Benzoic acid, 4-isothiocyanato-, ethyl ester	371.15	
1205-08-9	Methyl hippurate	355.65	
1205-09-0	2-[[(1-Phenylethylidene)amino]oxy]acetic acid	369.15	
1205-18-1	3-(1,3-Benzodioxol-5-yl)-2-methyl-2-propen-1-ol	318.3	
1205-30-7	4-Chloro-3-sulfamoylbenzoic acid	534.4	
1205-50-1	Benzoic acid, 3-chloro-4-hydroxy-5-methoxy-, methyl ester	409.65	
1205-64-7	3-Methyldiphenylamine	303.15	589.15
1205-72-7	4-Piperidinamine, 1-(phenylmethyl)-, hydrochloride (1:2)	548.15	
1205-89-6	N-(4-Methylphenyl)-N′-2-propen-1-ylthiourea	369.15	
1205-91-0	1,4-Diacetoxybenzene	396.65	
120511-73-1	Anastrozole	354.65	
120537-48-6	1H-Imidazo[4,5-c]pyridin-4-amine, N-methyl-1-(phenylmethyl)-, hydrochloride (1:1)	520.15	
12054-17-0	Copper, compd. with magnesium (2:1)	793.15	
12054-48-7	Nickel dihydroxide	503.15	
12054-85-2	Ammonium molybdate ((NH4)6Mo7O24) tetrahydrate	673.15	
12055-23-1	Hafnium oxide	3053.15	
12056-51-8	Potassium titanium oxide (K2Ti6O13)	1643.15	
12057-74-8	Magnesium phosphide (Mg3P2)	1023.15	
12057-75-9	Antimony, compd. with magnesium (2:3)	1501.15	
120570-77-6	Diethyleneglycol diformate		482.65
12059-23-3	Nickel, compd. with tin (3:1)	1250.15	
12059-95-9	Plutonium dioxide	1068.15	
1206-37-7	4-[(Dimethylamino)sulfonyl]benzoic acid	522.65	
1206-49-1	N-(2,6-Dimethylphenyl)maleimide	381.75	
1206-86-6	(3-Hydroxy-2-pyridinyl)-1-piperidinylmethanone	436.15	
1206-87-7	(3-Hydroxy-2-pyridinyl)-4-morpholinylmethanone	431.15	
1206-91-3	3-Amino-2,4,6-triiodobenzenepropanoic acid	506.15	
1206-92-4	3-(3-Hydroxy-2,4,6-triiodophenyl)-2-propenoic acid	497.65	
12060-01-4	Lead zirconate	1843.15	
12060-08-1	Scandium oxide (Sc2O3)	2703.15	
12061-16-4	Erbia	2703.15	
12063-74-0	Iron, compd. with neodymium (17:2)	1483.15	
12063-98-8	Gallium phosphide	1798.15	
12064-03-8	Gallium antimonide	978.15	
12065-10-0	Germanium selenide (GeSe)	943.15	
12065-11-1	Germanium diselenide	980.15	
12067-53-7	Silylene, telluroxo-	1168.15	
12067-57-1	Titanium silicide (Ti5Si3)	2403.15	
12068-40-5	Silicic acid (H2SiO3), aluminum lithium salt (2:1:1)	1705.15	
12068-69-8	Bismuth selenide (Bi2Se3)	983.15	1280.15
12068-77-8	Chromium iron oxide (Cr2FeO4)	2373.15	
12068-86-9	Iron magnesium oxide (Fe2MgO4)	714.15	
12068-90-5	Mercury telluride	1066.15	
12069-69-1	Basic copper carbonate	473.15	
12069-85-1	Hafnium carbide (HfC)	4433.15	
12069-89-5	Molybdenum carbide (Mo2C)	3233.15	
12069-94-2	Niobium carbide (NbC)	3873.15	
1207-12-1	4,6-Dimethyldibenzothiophene	428.15	613.15
1207-69-8	9-Chloroacridine	394.15	
1207-71-2	10H-Phenothiazine, 5-oxide	530.65	
1207-72-3	10-Methylphenothiazine	372.65	
1207-75-6	3-(2-Hydroxyethyl)-2,4(1H,3H)-quinazolinedione	526.9	
1207-93-8	6,11-Dihydrodibenzo[b,e]thiepin	374.65	
1207-99-4	3-Chloro-10H-phenothiazine	473.65	
12070-08-5	Titanium carbide (TiC)	3413.15	5093.15
12070-12-1	Tungsten carbide (WC)	3053.15	6273.15
12070-14-3	Zirconium monocarbide	4078.15	
12070-78-9	Ethanamine, tetrafluoroborate(1-) (1:1)	425.55	
12075-68-2	Di-μ-chlorochlorotriethyldialuminum	252.15	477.15
120770-34-5	Draflazine	486.25	
12078-25-0	Dicarbonyl(η5-cyclopentadienyl)cobalt	251.15	
12078-28-3	Dicarbonyl(η5-2,4-cyclopentadien-1-yl)iodoiron	390.65	
12078-32-9	(η4-1,3-Butadiene)tricarbonyliron	292.15	
12079-65-1	Tricarbonyl(η5-cyclopentadienyl)manganese	348.15	
1208-03-3	4-[Bis(2-chloroethyl)amino]benzaldehyde	361.65	
1208-04-4	4-[Bis(2-fluoroethyl)amino]benzaldehyde	319.15	
1208-52-2	2-[(4-Aminophenyl)methyl]benzenamine	361.15	
1208-86-2	N-(4-Methoxyphenyl)aniline	378.15	
1208-88-4	4-(Phenylthio)benzaldehyde	326.65	
12080-32-9	Dichloro[(1,2,5,6-η)-1,5-cyclooctadiene]platinum	538.15	
120807-02-5	L-Proline, 1-benzoyl-4-[(methylsulfonyl)oxy]-, cis-	445.65	
120811-92-9	(3-Methoxy-2-methylpropyl)benzene	307.15	
12082-03-0	Tricarbonyl(η6-chlorobenzene)chromium	368.15	
12082-08-5	(η6-Benzene)tricarbonylchromium	437.15	
12083-24-8	Tricarbonyl[(1,2,3,4,5,6-η)-methylbenzene]chromium	355.65	
12083-48-6	Dichlorobis(η5-2,4-cyclopentadien-1-yl)vanadium	523.15	
12086-40-7	(Ferrocenylmethyl)trimethylammonium iodide	491.15	
120868-66-8	Imidacloprid-urea	388.15	
1209-14-9	2-[2-(4-Methoxyphenyl)hydrazinylidene]propanedinitrile	423.15	
1209-66-1	10H-Phenothiazine, 5,5-dioxide	433.65	
1209-71-8	(+)-γ-Eudesmol	352.65	
1209-81-0	2-[(Carboxymethyl)sulfonyl]benzoic acid	439.65	
1209-98-9	Fencamfamine	424.15	402.65
12091-64-4	Molybdenum, hexacarbonylbis(η5-2,4-cyclopentadien-1-yl)di-, (Mo-Mo)	488.15	
12091-65-5	Tungsten, hexacarbonylbis(η5-2,4-cyclopentadien-1-yl)di-, (W-W)	512.15	
12092-47-6	Di-μ-chlorobis[(1,2,5,6-η)-1,5-cyclooctadiene]dirhodium	498.15	
120923-37-7	Amidosulfuron	434.65	
120928-09-8	Fenazaquin	351.65	
12093-05-9	Tricarbonyl[(1,2,3,4-η)-1,3,5,7-cyclooctatetraene]iron	367.15	
12093-10-6	Ferrocenecarboxaldehyde	393.15	
121-00-6	3-tert-Butyl-4-hydroxyanisole	335.65	
121-01-7	4-Nitro-2-(trifluoromethyl)aniline	361.15	
121-02-8	2-Methyl-5-nitrobenzenesulfonyl chloride	316.4	
121-03-9	2-Methyl-5-nitrobenzenesulfonic acid	406.65	
121-04-0	4-Methyl-1,3-benzenedisulfonic acid	569.15	
121-05-1	N,N-Diisopropylethylenediamine	383.4	
121-06-2	2,6-Xylyl phosphate	410.95	
121-14-2	2,4-Dinitrotoluene	344.15	573.15
121-17-5	1-Chloro-2-nitro-4-(trifluoromethyl)benzene	270.65	495.15
121-18-6	4-Chloro-3-nitrobenzenesulfonic acid	387.65	
121-25-5	Amprolium chloride	520.15	
121-27-7	5-Chloro-2-(4-chlorophenoxy)benzenamine	340.15	
121-28-8	1-(3,4-Dihydroxyphenyl)-2-[(1-methylethyl)amino]ethanone	369.15	
121-30-2	4-Amino-6-chloro-1,3-benzenedisulfonamide	527.65	
121-32-4	Ethylvanillin	350.65	558.15
121-33-5	Vanillin	353.65	557.65
121-34-6	Vanillic acid	484.65	
121-39-1	Ethyl 3-phenylglycidate	290.65	
121-40-4	(1R,6S)-3-Hydroxy-4-methyl-7-oxabicyclo[4.1.0]hept-3-ene-2,5-dione	400.15	
121-43-7	Trimethyl borate	243.85	340.65
121-44-8	Triethylamine	158.45	362.45
121-45-9	Trimethyl phosphite	195.15	384.65
121-46-0	Norbornadiene	254.05	362.65
121-47-1	3-Aminobenzenesulfonic acid	415.65	
121-51-7	3-Nitrobenzenesulfonyl chloride	334.15	
121-52-8	3-Nitrobenzenesulfonamide	440.15	
121-53-9	3-Sulfobenzoic acid	410.65	
121-54-0	Benzethonium chloride	438.15	
121-55-1	2-[[4-(Ethylsulfonyl)phenyl]methylene]hydrazinecarbothioamide	507.15	
121-57-3	Sulfanilic acid	561.15	
121-58-4	4-(Dimethylamino)benzenesulfonic acid	543.15	
121-59-5	Carbarsone	447.15	
121-60-8	4-Acetamidobenzenesulfonyl chloride	422.15	
121-61-9	Acetylsulfanilamide	492.65	
121-62-0	4-Acetamidobenzenesulfonic acid	593.15	
121-63-1	4,4′-Oxybis[benzenesulfonyl chloride]	401.65	
121-66-4	2-Amino-5-nitrothiazole	475.15	
121-68-6	Benzenecarbodithioic acid	481.15	
121-69-7	N,N-Dimethylaniline	275.65	466.69
121-71-1	3-Hydroxyacetophenone	369.15	569.15
121-72-2	Dimethyl-m-toluidine	345.15	485.15
121-73-3	1-Chloro-3-nitrobenzene	319.15	509.15
121-75-5	Malathion	276.05	429.65
121-79-9	Propyl gallate	403.15	
121-81-3	3,5-Dinitrobenzamide	457.15	
121-82-4	RDX	478.65	
121-86-8	2-Chloro-4-nitrotoluene	341.15	533.15
121-87-9	2-Chloro-4-nitroaniline	381.15	
121-88-0	2-Amino-5-nitrophenol	480.65	
121-89-1	3′-Nitroacetophenone	354.15	475.15
121-90-4	3-Nitrobenzoyl chloride	309.15	549.65
121-91-5	Isophthalic acid	620.15	373.15
121-92-6	3-Nitrobenzoic acid	415.15	
121-95-9	N-Methyl-N-(4-nitrophenyl)acetamide	426.65	
121-97-1	4′-Methoxypropiophenone	298.15	
121-98-2	Methyl 4-methoxybenzoate	322.15	529.15
1210-05-5	[1,1′-Biphenyl]-2,2′-dicarboxaldehyde	335.15	
1210-12-4	9-Cyanoanthracene	448.15	
1210-33-9	5-Chlorodibenzosuberane	379.15	
1210-34-0	Dibenzosuberol	366.15	
1210-35-1	Dibenzosuberone	303.15	
1210-39-5	β-Phenylcinnamaldehyde	317.15	
1210-56-6	2,3,4,9-Tetrahydro-6-methoxy-1-methyl-1H-pyrido[3,4-b]indole	423.65	
1210-66-8	N-Phenyl-9H-purin-6-amine	557.65	
1210-83-9	N-Acetylserotonin	366.65	
121032-29-9	Nelarabine	482.15	
12105-81-6	Chromium carbide (Cr23C6)	1823.15	
12107-56-1	Dichloro[(1,2,5,6-η)-1,5-cyclooctadiene]palladium	485.65	