CAS	name	Tm	Tb
14714-31-9	3-(Acetylamino)-γ-oxobenzenebutanoic acid	446.65	
147149-76-6	Nolatrexed	573.65	
14715-37-8	rel-(1R,2R)-2-Carboxycyclohexaneacetic acid	419.15	
147150-35-4	Cloransulam-methyl	490.15	
14716-90-6	3-Ethyl-5-isoxazolemethanol	375.65	
14716-92-8	3-Propyl-5-isoxazolecarboxylic acid	390.15	
147254-65-7	(3S)-2′-[(4-Bromo-2-fluorophenyl)methyl]spiro[pyrrolidine-3,4′(1′H)-pyrrolo[1,2-a]pyrazine]-1′,2,3′,5(2′H)-tetrone	465.65	
14731-15-8	2-Bromo-1-(5-phenyl-3-isoxazolyl)ethanone	402.15	
14731-25-0	5-[(4-Methylphenyl)amino]-1,3,4-thiadiazole-2(3H)-thione	490.65	
14731-27-2	5-[(Phenylmethyl)amino]-1,3,4-thiadiazole-2(3H)-thione	411.15	
14736-50-6	1-Methyl 2-carboxybenzeneacetate	372.15	
147362-57-0	Loviride	499.45	
14738-03-5	4-Chloro-N-(4-ethoxyphenyl)benzenesulfonamide	410.4	
14738-05-7	4-Chloro-N-(3-hydroxyphenyl)benzenesulfonamide	456.9	
1474-15-3	Pregna-4,17(20)-dien-21-oic acid, 3,11-dioxo-, methyl ester, (17Z)-	487.65	
1474-34-6	N-[1-[2-Hydroxy-2-(2-thienyl)ethyl]-4-piperidinyl]-N-phenylpropanamide	369.65	
147425-80-7	5-Benzoyl-2-pyrazinecarboxamide	478.65	
147492-59-9	1-(perfluorohexyl)decane	300.05	662.15
14750-16-4	Ethyl 2,3-dihydro-2-oxo-1H-indole-3-carboxylate	357.15	
14750-19-7	Ethyl 2,3-dihydro-3-methyl-2-oxo-1H-indole-3-carboxylate	358.15	
14756-77-5	1,5-Naphthyridin-3-amine	417.65	
14756-78-6	1,5-Naphthyridin-3-ol	554.15	
14757-88-1	7-Methoxyfuro[2,3-d]pyridazine	387.15	
14759-23-0	2,5-Dimethyl-1,8-naphthyridine	358.15	
1476-34-2	6-Ketoestrone	519.65	
14762-49-3	Gibbsite	438.15	
14763-29-2	(2,6-Dibromophenyl)hydrazine	383.15	
147636-36-0	1-[(4-Methylphenyl)sulfonyl]-4-piperidinecarboxylic acid	443.15	
147650-54-2	Methyl 7-chloro-6,7,8-trideoxy-3,4-O-(1-methylethylidene)-6-[[[(2S,4R)-1-methyl-4-propyl-2-pyrrolidinyl]carbonyl]amino]-1-thio-L-threo-α-D-galacto-octopyranoside	419.4	
14766-44-0	4-Heptyl-1H-pyrazole	302.15	
147666-80-6	3-(3,4-Dihydroxyphenyl)-8-hydroxy-1H-2-benzopyran-1-one	515.65	
147666-81-7	3-(3,4-Dihydroxyphenyl)-6,8-dihydroxy-1H-2-benzopyran-1-one	521.15	
14770-80-0	N-(4,5,6,7-Tetrahydrobenzo[b]thien-2-yl)acetamide	429.65	
14770-90-2	6-Methyl-2,3-diphenylbenzofuran	366.15	
147702-15-6	(3S)-2,2′-Diphenyl-3,3′-biphenanthrene-4,4′-diol	500.2	
147702-16-7	(3R)-2,2′-Diphenyl[3,3′-biphenanthrene]-4,4′-diol	508.15	
14772-95-3	7α-Hydroxy-3-oxo-4-cholen-24-oic acid	505.15	
14774-37-9	(Tetrahydro-2H-pyran-4-yl)methanol		485.15
14774-42-6	5,5′-Oxybis[1-pentanol]	290.15	
147742-24-3	1-Methylethyl 6-O-D-apio-β-D-furanosyl-β-D-glucopyranoside	392.65	
14779-18-1	7-Methyl-2-benzothiazolamine	403.15	
14779-25-0	3-(5-Methyl-2-furanyl)-2-propenoic acid	429.15	
147795-40-2	N-(3-Oxodecanoyl)-L-homoserine lactone	364.15	
147852-84-4	N-Octanoyl-L-homoserine lactone	407.65	
14786-37-9	1,4-Benzenediol, 2,5-dimethoxy-, 1,4-diacetate	458.65	
14787-39-4	Lanost-8-en-3-ol, 24-methylene-, 3-acetate, (3β,13α,14β,17α,20S)-	397.65	
14788-15-9	1-Piperidinepropanoic acid, hydrochloride (1:1)	483.65	
14788-33-1	N-(1,2,3,4-Tetrahydro-2-methyl-8-isoquinolinyl)acetamide	396.15	
148-83-4	Ostruthin	391.15	
1480-88-2	5-Fluoro-1,6-dihydro-6-oxo-4-pyrimidinecarboxylic acid	494.15	
1480-91-7	5-Fluoro-2-methyl-4(3H)-pyrimidinone	489.15	
1480-92-8	5-Fluoro-2-(methylthio)-4(3H)-pyrimidinone	515.15	
14804-37-6	1-Methoxy-2,3,4,5,6-pentamethylbenzene		428.65
14804-47-8	(3R,3aS,5aS,9R,9aS,9bS)-Octahydro-3,5a,9-trimethylnaphtho[1,2-b]furan-2,8(3H,4H)-dione	392.15	
148120-38-1	1-[(4-Methoxyphenyl)methyl]-4-(phenylmethyl)piperazine	354.15	
14813-19-5	2-(2,6-Dimethoxyphenyl)-5,6-dimethoxy-4H-1-benzopyran-4-one	419.65	
14813-20-8	2-(2,6-Dimethoxyphenyl)-5-hydroxy-6-methoxy-4H-1-benzopyran-4-one	497.65	
14814-17-6	4-(2-Hydroxyethoxy)benzophenone	352.65	
14815-14-6	N,N′-1,6-Hexanediylbis[2,2,2-trifluoroacetamide]	395.15	
1482-70-8	(5α)-Androstane-3,11,17-trione	453.15	
1482-98-0	Butanoic acid, 2,4-diamino-, hydrochloride (1:1), (2S)-	502.15	
1483-55-2	2-Bromo-5-(trifluoromethyl)benzonitrile	323.25	
1483-56-3	2-Bromo-5-(trifluoromethyl)benzoic acid	389.65	
1483-74-5	1,1,4,4-Tetraphenyl-2-butyne-1,4-diol	465.15	
14835-43-9	(3β,5β,25S)-Spirostan-3-yl β-D-glucopyranoside	500.65	
1484-05-5	1-(9-Methyl-9H-carbazol-3-yl)ethanone	373.15	
1484-06-6	9-(3-Methylbutyl)-9H-carbazole	316.15	
1484-14-6	Carbazole-9-ethanol	353.15	
148433-01-6	3-(3-Bromopropoxy)-4-methoxybenzaldehyde	334.65	
148461-16-9	(S)-t-BuPHOX	386.65	
14847-23-5	1,2-Cyclohexadiene	307.65	354.4
148476-22-6	3-(2,4-Dichlorophenyl)-4-hydroxy-1-oxaspiro[4.5]dec-3-en-2-one	522.65	
1485-19-4	2,3,4,9-Tetrahydro-9-methyl-1H-carbazol-1-one	375.65	
1485-98-9	1,1′-(1-Cyclopentene-1,2-diyl)bis[benzene]	332.15	
148528-45-4	2,5-Dimethyl 3,4-dihydroxy-1-(phenylmethyl)-1H-pyrrole-2,5-dicarboxylate	428.15	
14858-07-2	3β,5α-Dihydroxy(22E,24R)-ergosta-7,22-dien-6-one	523.15	
1486-49-3	Benzoic acid, 4-(phenylmethoxy)-, anhydride with 4-(phenylmethoxy)benzoic acid	391.65	
1486-52-8	3-Methoxy-4-(phenylmethoxy)benzoyl chloride	334.65	
1486-54-0	3,4-Bis(phenylmethoxy)benzoyl chloride	368.15	
1486-66-4	2-(3,4-Dihydroxyphenyl)-7-hydroxy-3,5-dimethoxy-4H-1-benzopyran-4-one	541.15	
1486-67-5	Annulatin	595.15	
14862-80-7	4-(4-Hydroxy-4-phenyl-1-piperidinyl)-1-phenyl-1-butanone	402.65	
148672-15-5	N-[4-Methoxy-3-(4-methyl-1-piperazinyl)phenyl]-2′-methyl-4′-(5-methyl-1,3,4-oxadiazol-2-yl)[1,1′-biphenyl]-4-carboxamide	493.65	
14868-24-7	2,3-Dihydroxy-2-methylbutanoic acid	339.15	
14869-41-1	2-(2-Chloroethoxy)acetic acid	305.9	
1487-16-7	2,3-Dihydro-4,5-dimethylfuran		379.15
148717-77-5	Zinnimidine	410.15	
148901-68-2	(2E)-3-[2-Cyclopropyl-4-(4-fluorophenyl)-3-quinolinyl]-2-propenal	412.15	
14892-98-9	6,7-Diphenyllumazine	585.65	
14897-47-3	Methyl 3,4-O-(1-methylethylidene)-β-D-galactopyranoside	410.65	
149-26-8	Disul	443.15	
149-90-6	Leucine, N-acetyl-, compd. with 2-aminoethanol (1:1)	423.15	
14901-29-2	4-Oxo-6-phenyl-5-hexynoic acid	353.15	
149057-20-5	1,1-Dimethylethyl N-[(2R)-2-oxiranylmethyl]carbamate	349.65	
14906-63-9	3-Pyridinecarboxylic acid, ethyl ester, 1-oxide	374.65	
1491-81-2	(17β)-17-[(Tricyclo[3.3.1.13,7]dec-1-ylcarbonyl)oxy]estr-4-en-3-one	478.15	
149104-90-5	4-Acetylphenylboronic acid	505.15	
149127-27-5	6-Chloro-8H-thieno[2,3-b]indole-2-carboxamide	584.65	
14916-65-5	6-Nitro-3-pyridinamine	507.65	
1492-23-5	O-Succinylhomoserine	453.65	
14920-88-8	Methyl 2,4,6-tribromobenzoate	342.15	
14926-34-2	2-Methyl-4-phenyl-3H-1,5-benzodiazepine	360.65	
14935-81-0	5α-Androst-3-en-17-one	398.65	
14937-32-7	Penta-O-galloyl-β-D-glucose	416.15	
14938-60-4	3,3-Diphenyl-1H,3H-naphtho[1,8-cd]pyran-1-one	476.65	
14939-92-5	2,3-Dihydro-1,4-benzodioxin-6-propanoic acid	341.65	
14939-93-6	2,3-Dihydro-1,4-benzodioxin-6-butanoic acid	351.15	
14939-94-7	7-Bromo-2,3,7,8-tetrahydro-6H-indeno[5,6-b]-1,4-dioxin-6-one	412.15	
14944-34-4	Taiwanin C	547.15	
14949-01-0	N-[4-(Aminosulfonyl)phenyl]-2-chloroacetamide	490.15	
149550-68-5	2-Amino-4-(3,4-dimethoxyphenyl)-4H-naphtho[1,2-b]pyran-3-carbonitrile	483.15	
14957-38-1	(+)-Marmin	396.65	
14959-32-1	6-Chloro-N-methyl-3-pyridazinamine	471.65	
149597-92-2	β-Phenyl-L-phenylalanine	510.15	
1496-36-2	1-(4-Fluorophenyl)cyclohexanol	350.65	
14960-35-1	Triglyceride POO,sn	292.15	
14960-81-7	3-Methyl-9H-carbazol-1-ol	427.65	
14962-29-9	2′,4′,6′-Trichlorobiphenyl-2-ol	380.9	
14962-34-6	3′,4′-Dichloro[1,1′-biphenyl]-3-ol	363.15	
14962-35-7	2-[[[(4-Methylphenyl)sulfonyl]amino]oxy]acetic acid	466.15	
149622-78-6	5-(4-Aminophenyl)-2,4-dihydro-4-(2-propen-1-yl)-3H-1,2,4-triazole-3-thione	497.65	
14964-98-8	Bancroftinone	308.65	
14966-37-1	Spiro[cyclopentane-1,9′-[9H]fluorene]	364.15	
1497-18-3	3-(4-Chlorophenyl)-3-methyl-2,5-pyrrolidinedione	420.15	
14970-89-9	1,4-Bis(methoxymethyl)piperazine	317.15	
149732-51-4	O-Demethylcurcumin	438.15	
149732-52-5	1,7-Bis(4-hydroxyphenyl)-1,4,6-heptatrien-3-one	442.15	
149794-11-6	Acetamide, 2-(ethylamino)-N-methyl-, hydrochloride (1:1)	452.15	
1498-93-7	1-(2-Chlorophenyl)-N,N′-bis[(2-chlorophenyl)methylene]methanediamine	379.65	
14980-93-9	Hexadecanoic acid, 2-bromo-, ethyl ester	300.15	
149806-06-4	6-Bromo-3-pyridinecarboxaldehyde	374.6	
14983-11-0	N-[1,1′-Biphenyl]-2-yl-2,2,2-trifluoroacetamide	373.15	
14984-26-0	2-Vinylbenzimidazole	442.65	
14984-76-0	Imidodisulfuryl fluoride, potassium salt (1:1)	369.15	
14985-26-3	trans-2-(4-Nitrophenyl)-3-phenyloxirane	399.65	
1499-56-5	(4R)-4-Hydroxy-L-proline methyl ester	431.15	
149910-68-9	1-(2-Bromoethyl)-2-(bromomethyl)-4-nitrobenzene	365.65	
149950-35-6	2′-Chloro[1,1′-biphenyl]-4-ol	364.15	
150-97-0	Mevalonic acid	424.65	
1500-93-2	1-(3,5-Dimethyl-1H-pyrrol-2-yl)ethanone	395.65	
1500-98-7	α-(Trichloromethyl)-2-quinoxalineethanol	378.15	
15001-12-4	Ethyl 5-amino-1-(3-methoxyphenyl)-1H-pyrazole-4-carboxylate	339.65	
150036-88-7	Verongamine	394.15	
150050-14-9	3,12-Dihydro-6-hydroxy-3,3,12-trimethyl-7H-[1]benzopyrano[5,6-b][1,7]naphthyridin-7-one	471.65	
150080-10-7	6-Methoxy-2-naphthalenecarboxylic acid hydrazide	433.15	
15009-92-4	2,5-Dinitropyridine	389.4	
150096-57-4	2,3-Dihydro-2-methyl-1H-benz[e]inden-1-one	324.65	
1501-39-9	2-[(3,4-Dihydro-4-methyl-3-oxo-2-quinoxalinyl)methyl]propanedioic acid	452.65	
150109-42-5	N-[(1,1-Dimethylethoxy)carbonyl]-L-alanine chloromethyl ester	310.15	
150159-14-1	1-Ethyl-6,7-dihydropyrrolo[2,3-c]azepine-4,8(1H,5H)-dione	428.15	
15018-63-0	4-Quinazolinamine, 3-oxide	500.15	
15018-64-1	3-Methoxy-4(3H)-quinazolinimine	293.15	
150258-21-2	Ethyl 4,5,7-trichloro-3-quinolinecarboxylate	343.15	
15028-41-8	α-Aminoisobutyric acid methyl ester hydrochloride	456.65	
15029-34-2	4-Methyl-β-oxo-1-piperazinepropanenitrile	386.65	
15029-35-3	4-(2-Hydroxyethyl)-β-oxo-1-piperazinepropanenitrile	357.65	
15029-36-4	2-Cyano-N-ethylacetamide	347.15	
15029-38-6	2-Cyano-N-cyclohexylacetamide	404.15	
1503-04-4	Methyl 3-amino-6-chloro-4,5-dihydro-5-oxo-2-pyrazinecarboxylate	518.15	
1503-99-7	4-Pentenoic acid, 3-oxo-5-phenyl-, ethyl ester	402.15	
15031-78-4	α,α-Dimethyl-4-pyridinemethanol	409.15	
15031-82-0	3-(1-Methylethylidene)piperidine		456.15
15032-53-8	α-(Aminomethyl)-4-fluorobenzeneacetic acid	501.15	
1504-06-9	3-Methyloxindole	396.65	
1504-62-7	3-(4-Methylphenyl)-2-propen-1-ol	324.65	425.15
1504-76-3	3-(3-Nitrophenyl)-2-propenal	391.15	
1505-51-7	6-Methylbenzo[b]thiophene-2-acetic acid	470.65	
1505-62-0	5-Methylbenzo[b]thiophene-2-carboxylic acid	491.9	
15050-04-1	1H-Indole-2-carboxylic acid, 6-methoxy-, ethyl ester	408.65	
15052-93-4	2-Chloro-3-methyl-2-butenoic acid	358.65	
150566-71-5	3,5-Pyridinedicarboxylic acid, 2-[(2-aminoethoxy)methyl]-4-(2-chlorophenyl)-1,4-dihydro-6-methyl-, 3-ethyl 5-methyl ester, (4S)-, benzenesulfonate (1:1)	334.65	
15058-19-2	4-Thiazolecarboxylic acid, 4,5-dihydro-2-methyl-, sodium salt (1:1)	488.15	
15058-36-3	4,4′-Dihydroxy-trans-stilbene	553.15	
1506-55-4	1-Ethyl 4-oxoheptanedioate	344.65	
150683-30-0	Tolvaptan	493.65	
15069-44-0	1,6-Dimethoxy-9H-xanthen-9-one	460.65	
150691-04-6	2-tert-Butylaminosulfonylphenylboronic acid	391.65	
15073-87-7	(3β,5α,7α,12α)-3,7,12-Trihydroxycholan-24-oic acid	459.65	
15074-18-7	3-Benzyl-4-hydroxycoumarin	478.15	
15074-20-1	4-Hydroxy-3-(1-phenylethyl)-2H-1-benzopyran-2-one	484.15	
15074-68-7	Bis(ethenyloxy)dimethylsilane		381.9
150781-79-6	4-Methyl-N,N-bis(1-methylethyl)-α-oxobenzeneacetamide	367.4	
150810-71-2	4-(1H-Indol-3-yl)-1,2-naphthalenedione	546.65	
15085-71-9	Micromelin	491.65	
15085-74-2	Aurasperone A	480.15	
150850-54-7	(1R,6S)-2,2,6-Trimethylcyclohexanecarboxylic acid	336.15	
150884-51-8	1,1-Dimethylethyl N-[(4-cyanophenyl)methylene]carbamate	359.15	
15089-74-4	2-Chloro-4,5-dimethylbenzoic acid	454.65	
150915-40-5	Tirofiban hydrochloride monohydrate	404.65	
15093-54-6	N-Phenyl-4-morpholinecarbothioamide	421.15	
15098-01-8	1,4-Naphthacenedione	554.65	
15099-85-1	β-Aminobenzenebutanoic acid	499.15	
15112-49-9	Terminaline	516.65	
15115-59-0	4-Chloroindan-1-one	362.65	
15116-14-0	1-(2,4-Dihydroxyphenyl)-3-methyl-1-butanone	346.15	
15118-49-7	4-Nitro-γ-oxobenzenebutanoic acid	418.15	
15121-86-5	β-Methylene-4-nitrobenzeneethanol	312.15	
15121-94-5	Primin	336.15	
151237-06-8	1,2-Bis(hexadecyloxy)benzene	326.65	
15126-08-6	Benzoic acid, 4-hydroxy-3-iodo-, propyl ester	378.15	
15128-52-6	1,2,3,9-Tetrahydro-4H-carbazol-4-one	496.15	
15128-84-4	2-Methyl-6-nitro-3-pyridinol	535.65	
15128-91-3	2,6-Dinitro-3-pyridinol	405.15	
151290-84-5	Ethyl 5-amino-1-methyl-3-(methylthio)-1H-pyrazole-4-carboxylate	455.15	
151291-05-3	3-Amino-1-methyl-5-(methylthio)-1H-pyrazole-4-carbonitrile	393.15	
1513-66-2	2,3-Difluoropyridine		391.15
15130-91-3	8-Azoniabicyclo[3.2.1]octane, 3-(3-hydroxy-1-oxo-2-phenylpropoxy)-8-methyl-8-(3-sulfopropyl)-, inner salt, (3-endo)-	493.15	
15131-72-3	3-Pyridinecarboxylic acid, 4-formylphenyl ester	366.65	
151358-48-4	Methyl 4-(di-1H-indol-3-ylmethyl)benzoate	372.15	
15136-29-5	N-[(1,1-Dimethylethoxy)carbonyl]-L-phenylalanyl-L-alanine methyl ester	376.65	
1514-45-0	2,2,2-Trifluoro-N-hydroxyacetamide	309.15	
1514-85-8	2,2-Difluoropropanedioic acid	390.65	
1514-90-5	1,1,1,2,3,3,4,4-Octafluoro-4-iodo-2-(trifluoromethyl)butane		367.15
15145-38-7	N-(4-Bromophenyl)-N′-(2-chloroethyl)urea	458.15	
15147-67-8	Uridine, 5′-methanesulfonate	452.15	
1515-21-5	rel-(3aR,4R,7S,7aR)-3a,4,7,7a-Tetrahydro-4,7-etheno-3H-furo[3,4-c]pyran-1,3,6-trione	461.65	
1515-35-1	2-[1-Methyl-2-(5-nitro-2-furanyl)ethenyl]pyridine	422.4	
15150-27-3	N-[(Diethylamino)iminomethyl]benzamide	382.65	
15151-57-2	4-Hydroxy-3-nitro-2(1H)-quinolinone	498.15	
151590-30-6	2-Propenoic acid, 3-(2-methyl-1H-indol-3-yl)-, (E)-	455.65	
1516-33-2	N-(2-Methylpropyl)thiourea	373.65	
1516-94-5	4,4′-(1,2-Ethanediyl)bis[2,6-bis(1,1-dimethylethyl)phenol	447.65	
1516-96-7	5-Bromo-1,3-bis(1,1-dimethylethyl)-2-methoxybenzene	322.65	
151655-69-5	5-Hydroxy-6,8,8-trimethyl-2-phenyl-4H-1-benzopyran-4,7(8H)-dione	497.4	
15166-06-0	2,2,3,3,4,4,5,5,6,7,7,7-Dodecafluoro-6-(trifluoromethyl)heptanoic acid	262.4	
151666-28-3	1-Amino-3-piperidinol	358.65	
15170-64-6	Bis[4-(imino-κN)-2-pentanonato-κO]nickel	520.35	
15177-67-0	trans-4-(Methoxycarbonyl)cyclohexanecarboxylic acid	341.15	
15177-68-1	trans-4-Cyanocyclohexanecarboxylic acid	423.15	
1518-54-3	Isosaccharinic acid	464.65	
15181-12-1	1,3-Diethyl-5-(1-methylethyl)benzene		497.85
15181-14-3	1,3,5-Tripropylbenzene		534.15
15182-98-6	4-Acetyl-1,2-dihydro-1-methyl-2-phenyl-3H-pyrazol-3-one	491.15	
15183-37-6	Estetrol	516.85	
151860-15-0	(1α,5α,6α)-6-Nitro-3-(phenylmethyl)-3-azabicyclo[3.1.0]hexane-2,4-dione	392.65	
151860-18-3	Carbamic acid, N-[(1α,5α,6α)-3-(phenylmethyl)-3-azabicyclo[3.1.0]hex-6-yl]-, 1,1-dimethylethyl ester	404.65	
15189-93-2	α-(Dimethylamino)-3,4-diethoxybenzeneacetonitrile	369.65	
15190-01-9	4-Methoxy-α-[(4-methylphenyl)amino]benzeneacetonitrile	375.9	
15190-05-3	α-(Dimethylamino)-4-methoxybenzeneacetonitrile	307.65	
15191-27-2	1,2,3,4,5,6-Hexahydro-1,5-methano-8H-pyrido[1,2-a][1,5]diazocin-8-one	428.15	
15198-08-0	2-Hydroxy-4-methoxybenzoyl chloride	428.4	
1520-97-4	2,5-Bis(ethylamino)-1,4-benzoquinone	386.15	
15200-24-5	2-(3-Buten-1-yl)-4,6-dimethylpyridine		328.15
15205-57-9	Tris(phenylmethyl) phosphite	325.15	
1521-03-5	2,5-Di-1-pyrrolidinyl-2,5-cyclohexadiene-1,4-dione	512.15	
1521-39-7	2,3-Dimethoxybenzamide	509.65	
1521-56-8	Cyclohexene-3,3,6,6-d4		356.15
152135-19-8	2′-Nitro[1,1′-biphenyl]-4-sulfonyl chloride	352.15	
15215-12-0	Sequirin B	485.65	
1522-89-0	1,3-Propanediol, 2,2-bis[[[(4-methylphenyl)sulfonyl]oxy]methyl]-, 1,3-bis(4-methylbenzenesulfonate)	430.15	
1522-96-9	Benzene, 1,1′-[(2-methylene-1,3-propanediyl)bis(oxy)]bis[4-chloro-	342.15	
152210-26-9	3,7-Dichloro-4-quinolinol	658.65	
15222-53-4	Lichexanthone	462.65	
152253-68-4	(2R,3R)-2-[3,4-Dihydroxy-2,6-bis(3-methyl-2-buten-1-yl)phenyl]-2,3-dihydro-3,5,7-trihydroxy-8-(3-methyl-2-buten-1-yl)-4H-1-benzopyran-4-one	398.65	
15229-79-5	4,8-Cyclododecadien-1-one	321.65	
15231-64-8	N,4,6-Trimethyl-2-pyrimidinamine	371.15	
15233-35-9	N-(1,6-Dihydro-4-methyl-6-oxo-2-pyrimidinyl)-N′-(4-methylphenyl)guanidine	536.15	
152378-19-3	(5S)-3-[(2R,11R)-2,11-Dihydroxy-11-[(2R,2′R,5R,5′R)-octahydro-5′-[(1R)-1-hydroxyundecyl][2,2′-bifuran]-5-yl]undecyl]-5-methyl-2(5H)-furanone	350.65	
152390-63-1	Camelliaside C	474.15	
1524-19-2	4-(4-Fluorophenoxy)phenol	368.9	
1524-37-4	4-Chloro-6-fluoro-1,3-benzenediamine	397.65	
152460-07-6	N-(2-Methyl-5-nitrophenyl)guanidine	490.15	
152460-08-7	(2-Methyl-5-nitrophenyl)guanidine nitrate	491.65	
152460-09-8	N-(2-Methyl-5-nitrophenyl)-4-(3-pyridinyl)-2-pyrimidinamine	467.65	
15248-39-2	6,7-Dimethoxyisoquinoline	363.15	
15250-44-9	4-Hydroxy-6-methyl-1-phenyl-2(1H)-pyridinone	549.15	
15250-48-3	Ethyl α-bromo-4-iodobenzeneacetate	325.15	
15252-93-4	(2S,4S,4aS,11aR,13aS)-Decahydro-2,4-dihydroxy-2-methyl-5H,9H,12H-indeno[7a,1-h]indolizin-12-one	526.15	
15256-10-7	Hydroxylamine, O-[(3,4-dichlorophenyl)methyl]-, hydrochloride (1:1)	470.15	
15257-61-1	4-Chloro-1-naphthaleneacetic acid	446.15	
15257-62-2	2-Chloro-1-naphthaleneacetic acid	423.15	
152628-02-9	2-Propyl-4-methyl-6-(1-methylbenzimidazol-2-yl)benzimidazole	405.65	
152630-47-2	4-Cyano-4-[3-(cyclopentyloxy)-4-methoxyphenyl]cyclohexan-1-one	384.65	
152630-48-3	1,7-Dimethyl 4-cyano-4-[3-(cyclopentyloxy)-4-methoxyphenyl]heptanedioate	354.65	
15266-35-0	Dihydroevocarpine	330.15	
15266-38-3	Evocarpine	309.15	
152684-26-9	5-Bromo-3-methoxy-2-nitropyridine	384.9	
15269-35-9	Iodonium, bis(4-chlorophenyl)-, sulfate (1:1)	466.15	
1527-62-4	N-(4-Butylphenyl)-2-chloroacetamide	403.65	
1527-92-0	Benzaldehyde, 2-phenyl-2-[phenyl(2-phenylhydrazinylidene)methyl]hydrazone	475.15	
152711-55-2	3-Azidocoumarin	383.15	
15272-24-9	4,8-Dimethoxy-2(1H)-quinolinone	505.65	
152766-94-4	N-Lignoceroyltryptamine	387.65	
1528-82-1	N-p-Chlorophenylbenzohydroxamic acid	428.65	
15284-30-7	5-Amino-2H-tetrazole-2-ethanol	361.65	
15285-16-2	N-Methyl-1H-1,2,4-triazol-5-amine	459.65	
15285-59-3	1-Chloro-3-(diethylamino)-2-propanol	275.15	
15286-99-4	N-(4-Carboxyphenyl)methacrylamide	477.65	
15287-32-8	(4-Chlorophenyl)(2,4,5-tribromo-1H-imidazol-1-yl)methanone	402.65	
15288-54-7	2-(Trimethylsilyl)-2,5-cyclohexadiene-1,4-dione	340.65	
15295-72-4	2-(2-Naphthalenylsulfonyl)acetic acid	400.9	
15295-77-9	2(3H)-Furanone, 3-aminodihydro-, hydrobromide (1:1), (3S)-	413.15	
15297-45-7	Acetic acid, methoxy[(phenylacetyl)amino]-, methyl ester	342.65	
153-15-1	18,19-Dinorpregna-4,13-dien-3-one, 17-methyl-, (17α)-	357.15	
153-97-9	7-Chlorotryptophan	510.65	
1530-75-2	Octanoic acid, 2-(1-oxooctyl)hydrazide	427.65	
153033-34-2	1,4-Bis(decyloxy)-2,5-diiodobenzene	324.15	
153034-91-4	2-Chloro-3,4-diiodopyridine	434.95	
153062-87-4	(2S)-1,2-Tetradecanediol	345.15	
15307-77-4	Diclofenac ethyl ester	324.15	
1531-85-7	11-[3-(Dimethylamino)propyl]-6,11-dihydrodibenzo[b,e]thiepin-11-ol	403.65	
15310-02-8	N-(2-Iodophenyl)benzamide	415.65	
15311-10-1	3-(5-Phenyl-1,3,4-thiadiazol-2-yl)pyridine	428.65	
15313-46-9	Carbonocyanidic amide, (3-chlorophenyl)-	392.15	
153197-14-9	Oxaziclomefone	423.15	
1533-04-6	2-Phenyl-1-[3-(trifluoromethyl)phenyl]ethanone	341.15	
153332-11-7	4,5-Dihydro-3,5-bis(4-methylphenyl)-1H-pyrazole-1-carbothioamide	426.65	
1534-35-6	Isolithocholic acid	365.65	
15344-29-3	3-Fluoro-2-pentanone	369.15	369.15
15345-56-9	2-Amino-3-chloro-6-methoxybenzoic acid	398.65	
15351-28-7	Undecanoic acid, 11-amino-, ethyl ester	338.15	
153529-19-2	2-(2,4-Dichlorophenyl)-1-(4-methoxyphenyl)ethanone	339.15	
153559-45-6	Methyl 4-[(5,6,7,8-tetrahydro-3,5,5,8,8-pentamethyl-2-naphthalenyl)carbonyl]benzoate	416.65	
153561-79-6	5,5′′′-Didodecyl-2,2′:5′,2′′:5′′,2′′′-quaterthiophene	439.15	
15357-34-3	Allochenodeoxycholic acid	518.65	
15358-38-0	Oxonantenine	489.65	
153595-93-8	5-(1H-Indol-3-ylmethyl)-1,3,4-thiadiazol-2-amine	448.15	
153595-95-0	5-(1H-Indol-3-ylmethyl)-1,3,4-oxadiazol-2-amine	458.15	
15362-44-4	2,4,6-Trichloro-N-phenylbenzenamine	316.65	
153624-58-9	1-[(2-Bromophenyl)sulfonyl]-1H-pyrrole	359.15	
153654-15-0	3-Methyl-5-phenyl-1H-pyrazole-4-methanol	509.15	
15366-35-5	1,3,5-Trimethyl 2-amino-1,3,5-benzenetricarboxylate	464.15	
15367-15-4	4-Pyridinamine, 3-iodo-N-nitro-	297.15	