CAS	name	Tm	Tb
31480-93-0	4-Hydroxyphenyl 2-methyl-2-propenoate	393.15	
31482-56-1	Disperse Orange 25	433.65	
3149-00-6	Phenbutamide	404.15	
3149-28-8	2-Methoxypyrazine		334.15
315-13-9	1-Fluoro-3,5-dimethyl-2-nitrobenzene	330.65	
315-14-0	1,3,5-Trifluoro-2-nitrobenzene	276.65	456.65
315-18-4	Mexacarbate	358.15	
315-22-0	Monocrotaline	470.65	
315-37-7	Testosterone enanthate	310.15	
315-72-0	Opipramol	373.65	
315-80-0	Dibenzepine hydrochloride	511.15	
3150-15-0	Methyl 2,3-anhydro-4,6-O-(phenylmethylene)-α-D-allopyranoside	472.65	
3150-24-1	p-Nitrophenyl β-D-galactopyranoside	454.65	
3150-25-2	3-Nitrophenyl β-D-galactopyranoside	455.65	
31505-26-7	6-O-Methyl-α-D-galactopyranose	395.15	
31508-00-6	PCB 118	384.15	480.65
3151-41-5	Tribenzyltin chloride	416.15	
31515-43-2	2-Nitrophenyl phenyl sulfone	420.15	
31519-22-9	1,4-Dihydroxy-2-naphthoic acid	697.15	
3152-68-9	1-Phenyl-1-penten-3-one	311.65	
31524-62-6	Isobavachin	460.65	
31529-29-0	2-Carboxy-1H-indole-3-butanoic acid	466.65	
31529-46-1	1-Amino-2-methylindoline	314.15	
3153-26-2	Vanadyl acetylacetonate	517.65	
3153-36-4	Ethyl 4-chlorobutyrate		457.15
3153-37-5	Butanoic acid, 4-chloro-, methyl ester		448.15
3153-44-4	4-Methoxy-γ-oxobenzenebutanoic acid	422.15	
3153-55-7	(-)-Nornuciferine	469.15	
3153-97-7	4-Hydroxy-5-methoxy-1,3-benzenedimethanol	378.65	
31542-48-0	3-Butyl-3,9-dihydro-1-methyl-1H-purine-2,6-dione	483.65	
31543-75-6	2,4-Dibromo-1-methylbenzene	263.45	
3155-16-6	1,2-Diphenyl ethanedioate	399.15	
3155-71-3	2-Methyl-4-(2,6,6-trimethyl-1-cyclohexen-1-yl)-2-butenal	274.65	
31551-27-6	(2Z)-2-Methyl-2-pentenenitrile		411.65
31551-28-7	(2E)-2-Methyl-2-pentenenitrile		426.15
31551-45-8	2,7-Dinitro-9-fluorenone	566.65	
31554-48-0	Thiophene, 3-(bromomethyl)-2,5-dihydro-, 1,1-dioxide	360.65	
31558-40-4	4-Bromo-3,5-dimethoxybenzaldehyde	383.65	
31558-46-0	(4-Methoxyphenyl)methyl phenyl carbonate	301.65	
3156-21-6	2-[(2,4-Dichlorophenoxy)methyl]-1H-benzimidazole	448.15	
3156-41-0	1-Nitro-4-(2-nitroethenyl)benzene	474.15	
3156-44-3	3-(2-Nitroethenyl)phenol	408.65	
3156-53-4	3-(2-Nitro-1-propen-1-yl)pyridine	340.9	
31560-20-0	(4R)-1-Benzoyl-4-hydroxy-L-proline methyl ester	417.15	
31566-31-1	Monostearin	330.15	
31567-90-5	Syndiotactic polybutadiene	429.15	
31570-04-4	Tris(2,4-di-tert-butylphenyl) phosphite	457.15	
31573-45-2	14-Methyl-16-azabicyclo[10.3.1]hexadeca-1(16),12,14-triene	377.15	
31574-44-4	2-Isopropyl-1-methoxy-4-methylbenzene		486.65
31575-35-6	2-Fluoropyrimidine	290.65	
3158-56-3	5-Pentadecylresorcinol	362.65	
3158-85-8	Dibenz[b,f][1,4]oxazepin-11(10H)-one	496.15	
3158-91-6	2-Chlorodibenz[b,f][1,4]oxazepin-11(10H)-one	516.15	
3158-98-3	2-Amino-5-chloro-α-methyl-α-phenylbenzenemethanol	366.65	
31581-11-0	2,3-Bis(chloromethyl)-1,4-naphthoquinone	415.15	
31581-32-5	Ethyl atrarate	401.15	
31582-45-3	4-(Methacryloyloxy)-2,2,6,6-tetramethylpiperidine	334.15	
3159-04-4	2-Chlorodibenzo[b,f][1,4]thiazepin-11(10H)-one	524.15	
3159-07-7	Dibenzo[b,f][1,4]thiazepin-11(10H)-one	531.15	
3159-28-2	4-Hydroxy-2-butyn-1-yl N-(3-chlorophenyl)carbamate	359.9	
3159-98-6	1,1′-[1,4-Phenylenebis(1-methylethylidene)]bis[hydroperoxide]	414.15	
31599-61-8	1-Iodo-3,4-dimethylbenzene	504.65	498.15
316-14-3	6-Methylbenz[a]anthracene	397.15	
316-15-4	N-Butyl-1,2,3,4-tetrahydro-9-acridinamine	336.15	
316-42-7	Emetine hydrochloride	518.15	
316-46-1	5-Fluorouridine	424.65	
316-49-4	4-Methylbenz[a]anthracene	380.15	
316-51-8	3,9-Dimethylbenz[a]anthracene	366.4	
316-68-7	1-Acetyl-4-fluoronaphthalene	311.65	
316-81-4	Thioproperazine	413.15	
3160-35-8	(4-Hydroxybenzylidene)acetone	387.65	
3160-37-0	Heliotropyl acetone	384.15	
3160-40-5	4-(4-Chlorophenyl)-3-buten-2-one	323.4	
3160-59-6	N-[(Phenylmethoxy)carbonyl]-L-isoleucine	318.15	
3160-86-9	1,4-Benzenedicarboxylic acid, compd. with 1,6-hexanediamine (1:1)	549.65	
3160-91-6	Moroxydine hydrochloride	484.65	
31601-41-9	N-(4-Methoxy-2-methylphenyl)acetamide	406.15	
31603-00-6	4-Butyl-1-phenyl-2-[4-(phenylmethoxy)phenyl]-3,5-pyrazolidinedione	405.65	
31605-34-2	Formaldehyde, polymer with 4-dodecylphenol	355.15	
31611-42-4	Benzenemethanamine, N-cyclohexyl-N-methyl-2-nitro-, hydrochloride (1:1)	509.65	
3162-29-6	5-Acetyl-1,3-benzodioxole	358.65	412.15
3162-56-9	(3S,3aS,5aR,9R,9aS,9bS)-3a,5,5a,9,9a,9b-Hexahydro-9-hydroxy-3,5a,9-trimethylnaphtho[1,2-b]furan-2,6(3H,4H)-dione	514.65	
3162-96-7	Methyl 4,6-O-benzylidene-α-D-glucopyranoside	434.65	
3163-07-3	4-Nitroresorcinol	395.15	451.15
3163-31-3	N-[4-[[(2,6-Dimethyl-4-pyrimidinyl)amino]sulfonyl]phenyl]acetamide	583.15	
31637-97-5	Etofibrate	373.15	
31638-89-8	Tris(3-nitrophenyl)phosphine oxide	508.15	
31643-49-9	4-Nitrophthalonitrile	415.15	
31644-48-1	2-Amino-N-2-pyridinylethanesulfonamide	413.65	
31644-71-0	Benzenemethanol, α-(trichloromethyl)-, 1-benzoate	372.15	
31645-39-3	N,N′-Bis(2-chloroethyl)phosphorodiamidic acid	379.65	
31647-36-6	5-Methylbenzo[a]pyrene	489.15	
3165-81-9	Octadecylpyridinium chloride	493.15	
31659-42-4	2-(3-Nitrophenyl)imidazoline	429.65	
3166-00-5	N-(Aminoiminomethyl)benzamide	433.15	
3166-48-1	2-Ethyl-2-hydroxybutanoic acid 2-(2-methylphenyl)hydrazide	389.65	
3166-50-5	2-Ethyl-2-hydroxybutanoic acid 2-phenylhydrazide	394.9	
3166-57-2	4(3H)-Quinazolinone, 3-(5-chloro-2-methyl-4-nitrophenyl)-2-methyl-, hydrochloride (1:1)	514.15	
3166-62-9	Ethanaminium, N,N-diethyl-2-[(2-hydroxy-2,2-diphenylacetyl)oxy]-N-methyl-, bromide (1:1)	442.65	
3167-49-5	6-Aminonicotinic acid	585.15	
31674-58-5	Platinate(1-), dichloro(L-methioninato-κN,κS)-, hydrogen (1:1), (SP-4-3)-	492.65	
31677-93-7	Bupropion hydrochloride	506.65	
31680-07-6	4-Methyl-3-nitrobenzaldehyde	315.65	415.65
31680-08-7	4-Methoxy-3-nitrobenzaldehyde	359.15	
31698-14-3	Ancitabine	522.15	
317-52-2	Hexafluorenium bromide	426.65	
3170-72-7	Benzenemethanaminium, 2-bromo-N-ethyl-N,N-dimethyl-, bromide (1:1)	437.65	
31701-42-5	2-(2H-Benzotriazol-2-yl)-1,4-benzenediol	484.4	
31706-95-3	α-Ethenyl-3,4-dimethoxybenzenemethanol	305.15	
3171-45-7	4,5-Dimethyl-1,2-phenylenediamine	406.15	
31710-30-2	Decachlorodiphenyl ether	489.15	
31715-46-5	3-Bromo-1H-dibenzo[de,h]quinoline-2,7-dione	570.65	
3172-33-6	4,4′′-(Diphenylsilylene)bis[1,1′-biphenyl]	442.65	843.15
3172-34-7	4-(Triphenylsilyl)-1,1′-biphenyl	432.15	
3172-42-7	2-[[(2-Chlorophenyl)imino]methyl]phenol	355.65	
3172-52-9	2,5-Dichlorothiophene	232.65	435.15
31721-17-2	Quinupramine	423.15	
3173-53-3	Cyclohexyl isocyanate	193.15	441.15
3173-56-6	Benzyl isocyanate	533.15	
3173-72-6	1,5-Naphthalene diisocyanate	403.15	440.15
3173-79-3	Dimethylketene dimer	255.15	443.15
3173-95-3	Acetamide, N-(4-imidazo[1,2-a]pyridin-2-ylphenyl)-, hydrochloride (1:1)	617.15	
317318-70-0	GW 501516	406.65	
3174-30-9	1H-Benzimidazole, 2-(dichloromethyl)-, hydrochloride (1:1)	443.15	
3174-67-2	1,3-Pentanediol	380.15	
3174-74-1	3,6-Dihydro-2H-pyran		365.65
3175-23-3	1,2,2-Trichloropropane		397.15
3175-89-1	(7aS,8R)-6,7,7a,8-Tetrahydro-7-methyl-5H-benzo[g]-1,3-benzodioxolo[6,5,4-de]quinolin-8-ol	452.15	
3175-95-9	Deoxyaconitine	447.65	
3176-03-2	Drotebanol	439.15	
3177-80-8	2-Amino-3-methoxybenzoic acid	442.65	
31770-95-3	5-(Methylsulfonyl)-6-nitro-2(3H)-benzoxazolone	537.15	
3178-22-1	tert-Butylcyclohexane	231.95	444.65
31780-26-4	Dibromostyrene	344.9	
3179-10-0	1-Methoxy-4-(2-nitroethenyl)benzene	359.65	
3179-31-5	3-Mercapto-1,2,4-triazole	489.15	
3179-56-4	Acetyl cyclohexylsulfonyl peroxide	315.15	
3179-63-3	3-(Dimethylamino)-1-propanol	419.15	436.65
3179-80-4	(Laurylamidopropyl)dimethylamine	305.15	
3179-89-3	Disperse Red 17	433.15	
3179-90-6	Disperse Blue 7	490.65	
31793-07-4	Pirprofen	372.15	
318-23-0	Imolamine		438.15
318-98-9	Propranolol hydrochloride	436.65	
3180-09-4	2-Butylphenol	253.15	508.15
3180-81-2	Disperse Red 13	406.15	
31805-48-8	2-Ethyl-3-methylthiophene		434.15
31807-55-3	Isododecane		490.65
3181-38-2	2′,3′,5′-Tri-O-acetylinosine	514.15	
3182-26-1	1,1,1,3,3,3-Hexachloro-2,2-difluoropropane	257.35	467.35
3182-77-2	N-2-Propen-1-ylglycine	431.65	
3182-93-2	Phenylalanine ethyl ester hydrochloride	399.65	
3182-95-4	L-Phenylalaninol	358.65	
31828-50-9	Cephradine dihydrate	457.15	
31828-68-9	L-Homocysteine thiolactone hydrochloride	438.65	
31828-71-4	Mexiletine	477.15	
31835-53-7	4-Methoxy-2-methylquinoline	335.15	
3184-13-2	Ornithine hydrochloride	498.15	
3184-36-9	6,7-Isoquinolinediol, 1-[(3,4-dihydroxyphenyl)methyl]-1,2,3,4-tetrahydro-, hydrochloride (1:1)	565.15	
31842-01-0	Indoprofen	486.65	
31842-61-2	Rimiterol hydrobromide	493.15	
31844-92-5	2-Chloro-3-oxo-N-phenylbutanamide	410.65	
31844-95-8	2-Bromo-1-pentene		380.65
31844-98-1	1-Bromo-1-butene		372.15
31848-01-8	Morclofone	364.65	
3185-99-7	Methyl p-tolyl sulfone	362.15	363.15
31857-31-5	1,3-Dimethyl-2-cyanoguanidine	447.8	
31857-89-3	5-Tetradecanone	298.9	
31868-18-5	Mexazolam	446.65	
3187-19-7	2-Hydroxy-4,6-dimethoxybenzoic acid	429.15	
3187-58-4	Methyl orsellinate	412.15	
31876-38-7	Moniliformin	420.65	
3188-00-9	Dihydro-2-methyl-3(2H)-furanone		412.15
3188-13-4	(Chloromethoxy)ethane		356.15
31883-05-3	Moricizine	429.65	
31883-98-4	3-Methyl-3-cyclohexen-1-one	252.15	474.15
31888-72-9	Picolinohydroxamic acid	392.65	
3189-13-7	6-Methoxyindole	364.65	
3189-43-3	2,2,3,3-Oxiranetetracarbonitrile	450.65	
31898-68-7	2,2-Bis(trifluoromethyl)oxirane		314.65
319-03-9	4-Fluorophthalic anhydride	350.15	
319-78-8	D-Isoleucine	556.65	
319-84-6	α-Hexachlorocyclohexane	432.65	561.15
319-85-7	β-Hexachlorocyclohexane	582.15	
319-86-8	δ-Hexachlorocyclohexane	414.65	
319-88-0	1,3,5-Trichloro-2,4,6-trifluorobenzene	336.15	471.55
3190-70-3	L-Leucine N-carboxy anhydride	350.4	
31927-64-7	6-Methyldibenzo[def,mno]chrysene	465.15	
31938-10-0	2-(Triphenylmethoxy)-1H-isoindole-1,3(2H)-dione	443.65	
31938-11-1	O-(Triphenylmethyl)hydroxylamine	358.65	
3194-15-8	2-Propionylfuran	301.15	352.15
3194-55-6	1,2,5,6,9,10-Hexabromocyclododecane	463.15	
3194-57-8	1,2,5,6-Tetrabromocyclooctane	420.65	
31949-21-0	2-Bromo-1-(2-methoxyphenyl)ethanone	315.65	
3195-24-2	Diethyl diallylmalonate		516.65
3195-37-7	1,6-Diphenyl hexanedioate	378.9	
3196-15-4	Butanoic acid, 2-bromo-, methyl ester	389.15	441.15
3196-56-3	2,6,7-Trioxa-1-phosphabicyclo[2.2.2]octane, 4-methyl-, 1-sulfide	498.65	
31961-02-1	Poly(oxy-1,2-ethanediyl), α-(3-carboxy-1-oxopropyl)-ω-methoxy-	328.15	
31962-05-7	5-Cyclohexyl-2,3-dihydro-1H-indene-1-carboxylic acid	420.65	
3197-06-6	N,N-Bis(2-hydroxyethyl)ethylenediamine		443.15
3198-07-0	α-Ethylnorepinephrine hydrochloride	472.15	
3198-15-0	Benzenemethanol, α-[(1S)-1-aminoethyl]-, hydrochloride (1:1), (αR)-	444.15	
3198-30-9	Terephthalate(2-)	348.65	
3198-32-1	Benzenesulfonate (1-)	433.15	
31980-29-7	Nicofibrate	321.65	453.15
31981-44-9	17α-Acetoxy-19-norprogesterone	501.15	
320-23-0	1,2,4,5-Tetrakis(trifluoromethyl)benzene	346.65	
320-51-4	4-Chloro-3-(trifluoromethyl)aniline	309.65	
320-60-5	2,4-Dichlorobenzotrifluoride	247.15	450.67
320-67-2	Azacytidine	502.15	
320-72-9	3,5-Dichlorosalicylic acid	493.65	
320-77-4	Isocitric acid	423.15	
320-90-1	1-Methylethyl 4-amino-2-(aminosulfonyl)benzoate	400.65	
320-98-9	5-Fluoro-2-nitrobenzoic acid	407.65	
3200-06-4	Naftidrofuryl oxalate	383.65	
3200-36-0	N,N′-Bis(3-methoxyphenyl)methanimidamide	381.15	
3200-96-2	2,3,4,4-Tetrachloro-2-cyclobuten-1-one		449.15
32003-36-4	2-Hydrazinyl-4(5H)-thiazolone	570.15	
3201-20-5	2,4-Dihydro-4,4,5-trimethyl-3H-pyrazol-3-one	382.65	
3201-30-7	Alanine, N-piperonyl-	536.15	
32013-83-5	2-Methylnonadecanoic acid	330.65	
32017-76-8	2-(4-Bromophenyl)oxirane	299.15	
32018-88-5	5-Amino-1-naphthalenecarboxylic acid	474.65	
32024-15-0	3-Iodo-4,5-dimethoxybenzaldehyde	346.15	
3204-27-1	Dinoterb acetate	406.9	
3204-37-3	5,5-Dimethyl-3-[(trichloromethyl)thio]-2,4-imidazolidinedione	438.15	
3204-68-0	Benzenemethanaminium, N,N-dimethyl-N-phenyl-, chloride (1:1)	382.15	
3204-73-7	Benzoic acid, 4-(2-hydroxyethoxy)-, methyl ester	341.15	
32042-43-6	Arginine hydrochloride (1:?)	481.15	
32046-51-8	2-Methyl-5-nitrobenzoxazole	428.25	
32061-14-6	4-[(N-4-Methoxybenzylidene)amino]antipyrine	432.15	
32064-65-6	Hydrazine, (phenylmethyl)-, ethanedioate (1:1)	455.65	
32064-67-8	(1,1-Dimethylethyl)hydrazine	358.15	404.65
32065-66-0	Quinoxaline, 2-(dimethoxymethyl)-, 1,4-dioxide	413.65	
3207-12-3	1-Propanol, 2-amino-2-methyl-, hydrochloride (1:1)	473.65	
3207-50-9	(9Z,12Z)-N-Cyclohexyl-9,12-octadecadienamide	307.65	
32077-87-5	Gitoxigenin 3-O-α-D-glucoside	481.65	
3208-16-0	2-Ethylfuran	413.15	365.15
32081-55-3	3-Iminobutanethioamide	415.15	
3209-13-0	3-Methoxy-5-methylphenol	409.15	
3209-22-1	2,3-Dichloronitrobenzene	334.65	530.65
32092-14-1	4H-Pyrido[1,2-a]pyrimidine-3-carboxylic acid, 6,7,8,9-tetrahydro-6-methyl-4-oxo-, ethyl ester	333.15	
321-14-2	5-Chlorosalicylic acid	444.65	
321-28-8	2-Fluoroanisole	234.15	427.65
321-37-9	1-(4-Chlorophenyl)-2,2,2-trifluoroethanone	299.15	454.65
321-38-0	1-Fluoronaphthalene	264.15	488.15
321-54-0	Coumaphos oxon	341.65	
321-55-1	Haloxon	364.15	
321-60-8	2-Fluorobiphenyl	346.65	521.15
321-64-2	Tacrine	456.65	
321-97-1	(-)-Pseudoephedrine	392.15	
321-98-2	(+)-Ephedrine	392.15	
3211-76-5	L-Selenomethionine	548.15	
32111-28-7	N-Methyl-2-pyrazinamine	322.65	
32111-34-5	4-(2-Pyridinyl)benzonitrile	364.65	
32112-80-4	3-Ethyl-5-[1-(2-hydroxyethyl)-4(1H)-pyridinylidene]-2-thioxo-4-thiazolidinone	523.15	
32116-10-2	14-Heptacosanol	355.45	
32116-25-9	1-(5-Nitro-1H-pyrrol-2-yl)ethanone	429.15	
3212-60-0	2-Cyclopenten-1-ol		413.15
3213-73-8	3,3,5-Trimethylcyclohexaneacetic acid	389.15	
32131-17-2	Nylon 66	516.65	
32136-81-5	1-(4-Hydroxyphenyl)-2-methoxyethanone	402.15	
32137-19-2	1,2-Difluoro-4-(trifluoromethyl)benzene	369.65	377.15
3215-64-3	2,6-Dichlorobenzeneacetonitrile	348.65	
3215-65-4	2,3,6-Trichlorobenzeneacetonitrile	336.65	
32159-21-0	1-(Phenylmethyl) (2S)-5-oxo-1,2-pyrrolidinedicarboxylate	408.65	
3216-47-5	3-(Chloromethyl)benzo[b]thiophene	313.15	
3216-48-6	Benzo[b]thiophene-3-acetonitrile	339.65	
3216-88-4	N,N′-1,2-Ethanediylbis[2-cyanoacetamide]	465.65	
32161-06-1	1-Acetyl-4-piperidone		491.15
32162-27-9	rel-(1R,2R,4S,6R)-2,7,7-Trimethyl-3-oxatricyclo[4.1.1.02,4]octane		376.15
3217-15-0	4-Bromo-2,6-dichlorophenol	329.15	
3218-02-8	Cyclohexanemethanamine	435.65	433.15
3218-36-8	[1,1′-Biphenyl]-4-carboxaldehyde	333.15	394.15
3218-49-3	3,4-Dichlorobenzeneacetonitrile	314.65	
32180-77-1	4-[2-(2-Acetylphenyl)diazenyl]-N-[4-[2,4-bis(1,1-dimethylpropyl)phenoxy]butyl]-1-hydroxy-2-naphthalenecarboxamide	409.15	
32183-13-4	1,3-Dimethyl-4-nitro-1H-pyrazole-5-carbonitrile	365.65	
3219-55-4	N-Benzylmethacrylamide	366.65	
3219-63-4	1-(Trimethylsilyl)methanol		394.65
32190-96-8	1,4-Benzenediol, 2-(methylamino)-, hydrobromide (1:1)	450.65	
322-46-3	Pyrido[2,3-b]pyrazine	420.65	
322-75-8	1-(4-Chlorophenoxy)-2-nitro-4-(trifluoromethyl)benzene	320.15	
322-79-2	Triflusal	394.15	
322-97-4	4-Hydroxy-7-(trifluoromethyl)quinoline	540.65	
3220-50-6	(1-Phenylvinyl)phosphonic acid	385.15	
32202-61-2	4-Aminoindane	282.15	
32208-45-0	Methyl ursolate	444.15	
3221-15-6	(Chloromethyl)thiirane		368.15
3221-61-2	2-Methyloctane	192.85	416.35
3221-64-5	2,2′-[[2,2-Bis[[[(2-hydroxyphenyl)methylene]amino]methyl]-1,3-propanediyl]bis(nitrilomethylidyne)]bis[phenol]	413.15	
32213-95-9	L-Aspartic acid, 1,4-dimethyl ester, hydrochloride (1:1)	389.65	
32214-80-5	Lupeol palmitate	383.15	
3222-49-9	5-Methylnicotinic acid	488.15	
32222-06-3	Calcitriol	386.15	
3223-07-2	Melphalan hydrochloride	449.65	
3223-90-3	1,4-Dichloro-5-nitro-9,10-anthracenedione	511.15	
3223-94-7	5-Amino-1,4-dichloro-9,10-anthracenedione	472.15	
32231-06-4	1-Piperonylpiperazine	372.65	
32233-40-2	(3aR,4S,5R,6aS)-Hexahydro-5-hydroxy-4-(hydroxymethyl)-2H-cyclopenta[b]furan-2-one	388.65	
32241-08-0	Heptachloronaphthalene	449.15	
32246-34-7	3-Hydroxy-2,4-dimethoxybenzaldehyde	377.65	
3225-97-6	1-Amino-4-chloro-2-methyl-9,10-anthracenedione	538.65	
3226-32-2	2-Hexylphenol	271.15	408.65
3226-36-6	Carbamodithioic acid, N,N-dimethyl-, ammonium salt (1:1)	359.65	
3226-37-7	Thiocyanic acid, 4-chlorophenyl ester	308.9	
32262-18-3	4-Methoxy-1-methyl-2(1H)-quinolinone	372.9	
32266-10-7	Hexoprenaline sulfate	498.15	
3228-01-1	3-Methyl-2-(1-methylethyl)phenol	342.15	501.65
3228-02-2	3-Methyl-4-isopropylphenol	387.15	511.15
3228-03-3	3-Isopropyl-5-methylphenol	322.15	401.15
3228-04-4	2-Methyl-6-isopropylphenol	258.65	498.65
3228-99-7	1,3-Dichloro-2,2-bis(chloromethyl)propane	370.15	
3229-00-3	1,3-Dibromo-2,2-bis(bromomethyl)propane	436.15	578.65
32294-60-3	Diphenyl ditelluride	326.65	
323-09-1	2-Fluoronaphthalene	334.15	485.15
323-87-5	4-Hydroxy[1,1′-biphenyl]-3-carboxylic acid	488.65	
3230-23-7	4-Ethylpiperidine		427.15
3230-39-5	p-(p-Methoxybenzylideneamino)phenol	460.15	
3230-65-7	3,4-Dihydroisoquinoline	448.65	
3230-76-0	7,10-Dihydro-10-hydroxyretinol	346.65	
3230-94-2	Ornithine aspartate	488.15	
32305-98-9	(-)-DIOP	362.65	
32315-10-9	Triphosgene	352.15	476.15
32316-92-0	2-Naphthylboronic acid	512.15	
3232-36-8	Salicylaldehyde salicyloylhydrazone	550.15	
3232-39-1	Ethanethioic acid, 1,1′-anhydrosulfide	414.15	
3232-84-6	Urazole	522.65	
32321-30-5	2,3,5,6-Tetramethyl-1,4-benzenedimethanamine	393.65	
3234-02-4	2,3-Dibromo-2-butene-1,4-diol	390.15	
3234-28-4	1,2-Epoxytetradecane	458.65	
3234-49-9	1,2-Dibromopentane		461.65
3234-84-2	Stearyl laurate	310.15	
3234-85-3	Myristyl myristate	310.55	
32349-14-7	2-Chloro-2-nitro-1,3-propanediol	389.15	
32349-41-0	N-(3,4,5-Trimethoxybenzylidene)aniline	408.15	
3235-04-9	4-Methoxybenzaldehyde oxime	333.15	523.15
3235-17-4	N-[(Phenylmethoxy)carbonyl]-L-alanylglycine	377.15	
3235-68-5	1-Piperidineacetic acid, hydrochloride (1:1)	481.15	
32359-34-5	Medifoxamine	411.15	
3236-47-3	cis-1,4-Cyclohexanedimethanol	315.65	
3236-48-4	trans-1,4-Cyclohexanedimethanol	488.15	
3236-53-1	2,2,4-Trimethyl-1,6-hexanediamine	500.15	
3236-54-2	2,4,4-Trimethyl-1,6-hexanediamine	500.15	
3236-55-3	N1,N4-Dimethyl-1,4-benzenedicarboxamide	484.15	
3236-63-3	2,2′-Methylenebis(4-methylphenol)	397.15	
3236-71-3	9,9′-Bis(4-hydroxyphenyl)fluorene	474.65	
3236-82-6	Niobium pentaethoxide	278.65	
32360-03-5	2-(1,1-Dimethylethyl)-5-pentadecylphenol	316.65	
32361-88-9	6,8-Di-β-D-glucopyranosyl-5,7-dihydroxy-3-(4-hydroxyphenyl)-4H-1-benzopyran-4-one	502.15	
32362-89-3	1,2-Dihydro-5-(2-pyridinyl)-3H-1,2,4-triazole-3-thione	546.15	
3237-22-7	Furfurylidenemalononitrile	340.65	
3237-50-1	5,5-Dihydroxy-2,4,6(1H,3H,5H)-pyrimidinetrione	445.15	
3237-62-5	5,6-Dichloro-1-ethyl-2-methyl-1H-benzimidazole	355.65	
3238-38-8	2,3,4,6-Tetramethylphenol	353.65	513.15
3238-40-2	2,5-Furandicarboxylic acid	615.15	
3238-55-9	2-Propionylpyridine	479.65	
3238-60-6	2-Propylpiperidine	372.15	
3238-75-3	Dipropylethanolamine		469.15
32388-21-9	Minimycin	438.15	
3239-45-0	(+)-Fenfluramine hydrochloride	433.65	
324-15-2	2-(3-Fluorophenyl)-1H-benzimidazole	531.15	
324-27-6	2-(4-Fluorophenyl)benzimidazole	530.15	
324-57-2	2-(3-Fluorophenyl)-5-phenyloxazole	342.65	
324-74-3	4-Fluorobiphenyl	347.35	526.15
324-80-1	2-(4-Fluorophenyl)-5-phenyloxazole	354.65	
324-93-6	4′-Fluoro[1,1′-biphenyl]-4-amine	393.15	
3240-09-3	5-Methyl-5-hexen-2-one		423.15
3240-20-8	Ethyl 2-(1-phenylethyl)hydrazinecarboxylate	340.9	
3240-34-4	Iodobenzene diacetate	433.65	
3240-78-6	4,4′-Bipyridinium, 1,1′-dimethyl-, bromide (1:2)	638.15	
32407-67-3	Ethyl α-hydroxy-3,4-dimethoxybenzeneacetate		438.15
32407-99-1	(N,N-Dimethylcarbamodithioato-κS,κS′)phenylmercury	448.15	
3241-77-8	Benzeneethanamine, N-[(3,4-dimethoxyphenyl)methyl]-, hydrochloride (1:1)	486.15	
32421-46-8	Bunaftine		451.15
3244-54-0	3,6-Dinitrocarbazole	639.15	
32444-63-6	3-[4-(Dimethylamino)phenyl]-2-propenenitrile	336.15	
32447-90-8	Ethyl (1S,2R)-2-(dimethylamino)-1-phenyl-3-cyclohexene-1-carboxylate	330.15	
32447-93-1	3-Cyclohexene-1-carboxylic acid, 2-(dimethylamino)-1-phenyl-, ethyl ester, hydrochloride, (1S-trans)-	448.65	
32449-41-5	6-Bromo-5-methyl[1,2,4]triazolo[1,5-a]pyrimidin-7-ol	542.15	
32449-92-6	Glucuronolactone	450.65	
3245-38-3	Methyl deoxycholate	365.65	
32450-56-9	Retinyl methyl ether	328.15	
32451-19-7	2-(2-Thienyl)-4-thiazolidinecarboxylic acid	418.65	
32459-62-4	1-Ethoxy-4-isocyanatobenzene	334.15	383.15
32462-30-9	Oxfenicine	486.15	