CAS	name	Tm	Tb
124289-25-4	5-(Bromomethyl)-1,3-benzenedicarbonitrile	397.65	
124341-38-4	2-(Methylamino)-3-nitrobenzoic acid	433.15	
124351-85-5	Incadronic acid	523.65	
124351-86-6	P,P′-[(Cyclooctylamino)methylene]bis[phosphonic acid]	501.65	
124379-29-9	(S)-4-(3,4-Dichlorophenyl)-1-tetralone	357.15	
1244-58-2	Cannabidiolic acid	319.65	
1244-78-6	Quercetin 5,7,3′,4′-tetramethyl ether	468.75	
124432-27-5	2-Oxo-5-(trifluoromethyl)-1(2H)-pyridineacetonitrile	398.15	
124432-69-5	1,2-Dihydro-2-oxo-5-(trifluoromethyl)-3-pyridinecarbonitrile	450.9	
124500-38-5	1-(3,5-Dichloro-4-hydroxyphenyl)-2-methyl-1-propanone	385.65	
124525-55-9	Butanoic acid, 2-[(3-nitrophenyl)methylene]-, (E)-	412.65	
124558-63-0	2,2′,6,6′-Tetraethyl [4,4′-bipyridine]-2,2′,6,6′-tetracarboxylate	417.15	
124605-42-1	Methyl (αR,βS)-β-[[(1,1-dimethylethoxy)carbonyl]amino]-α-hydroxybenzenepropanoate	405.65	
124623-15-0	1-(2-Amino-5-bromophenyl)-1-propanone	352.65	
124649-78-1	(-)-Dihydroguaiaretic acid	359.65	
1246566-54-0	2-[(5-Methyl-2-nitrophenyl)thio]pyridine	335.65	
124691-78-7	4-Chloro-1-β-D-ribofuranosyl-1H-indazole	422.65	
1247-46-7	(1S,2S,5S)-2-(Acetyloxy)-1-methyl-5-[(2S)-1,2,3,4-tetrahydro-6-methoxy-1-oxo-2-naphthalenyl]cyclopentaneacetic acid	418.15	
124703-79-3	6-Ethyl-5-methyl-4(3H)-pyrimidinone	434.65	
124709-72-4	(S)-2-(4-Methylphenyl)propionic acid	332.65	
124717-61-9	5-(1,3-Dioxolan-2-yl)-2-methylbenzoic acid	429.15	
124728-90-1	2,3-Difluoro-1,4-benzenediol	398.15	
124730-02-5	2-(2,4-Dimethylphenyl)-4,5-dihydro-1H-imidazole	368.65	
124750-67-0	4′-[(2-Butyl-4-chloro-5-formyl-1H-imidazol-1-yl)methyl][1,1′-biphenyl]-2-carbonitrile	372.15	
124756-24-7	4,4-Diethyl-2-(3,4,5-trimethoxybenzoyl)-3,5-isoxazolidinedione	380.65	
124800-34-6	Ethyl 4-chloro-3-ethyl-1-methyl-1H-pyrazole-5-carboxylate	307.25	
124845-04-1	5-Cyclopropyl-4-isoxazolecarboxylic acid	437.15	
124853-28-7	3-Dehydroteasterone	474.65	
124858-35-1	Nadifloxacin	519.15	
1248587-72-5	N-(4-Methyl-2-pyrimidinyl)-1H-pyrrolo[2,3-b]pyridin-4-amine	505.15	
1249-67-8	21-(Acetyloxy)-17-hydroxypregna-1,4-diene-3,20-dione	490.15	
124930-94-5	8-Chloro-2-(4-chlorophenyl)-4-quinolinecarbonyl chloride	432.15	
124959-36-0	2-Chloro-4,6-di-2-thienylpyrimidine	464.15	
124980-94-5	(αR)-4-Fluoro-α-hydroxybenzenepropanoic acid	343.65	
125-80-4	4-Piperidinol, 1,2,5-trimethyl-4-phenyl-, 4-propanoate, hydrochloride (1:1)	494.65	
125016-15-1	(3,4-Dichlorophenyl)(4-methylphenyl)methanone	469	
125072-69-7	(3R,4S)-Dihydro-3-hydroxy-3,4-bis[(4-hydroxy-3-methoxyphenyl)methyl]-2(3H)-furanone	444.15	
1251-84-9	3,5,6,7,3′,4′-Hexamethoxyflavone	416.15	
125193-62-6	Famotidine hydrochloride	443.15	
125224-62-6	2,5-Diazabicyclo[2.2.1]heptane, 2-methyl-, hydrobromide (1:2), (1S,4S)-	531.65	
125240-16-6	2,6-Diamino-4-(4-fluorophenyl)-4H-thiopyran-3,5-dicarbonitrile	445.4	
125279-72-3	(-)-Lentiginosine	378.15	
1253-47-0	Phosphonium, [[4-(methoxycarbonyl)phenyl]methyl]triphenyl-, chloride (1:1)	515.65	
1253-67-4	N-[2-(Hydroxymethyl)-2-phenylbutyl]-3,4,5-trimethoxy-N-propylbenzamide	398.65	
1253180-94-7	Methyl (2E)-3-(2,6-difluorophenyl)-2-propenoate	325.15	
1253286-63-3	N-(1-Pyrrolidinylsulfonyl)-4-(trifluoromethyl)benzamide	436.15	
125367-34-2	N,N′-[1,2-Ethanediylbis(oxy-2,1-phenylene)]bis[N-(2-methoxy-2-oxoethyl)glycine] 1,1′-dimethyl ester	361.15	
125401-75-4	Bispyribac	422.15	
1254177-53-1	4-Chloro-α-(4-nitrophenyl)benzenepropanenitrile	343.15	
125464-42-8	Saclofen	585.65	
125488-15-5	4-Phenyl-2-(1-pyrrolidinyl)thiazole	308.65	
1255-02-3	Carapanaubine	489.65	
1255-12-5	Cycloeucalenone	357.15	
125537-93-1	D-Arabinitol, 1-[(αS)-α-methyl-1H-indole-3-acetate]	403.65	
125552-59-2	12-Chlorobenz[b]acridine	447.65	
1255525-56-4	L-Proline, 2-(4-nitrophenyl)-, hydrochloride (1:1)	433.15	
1255580-76-7	2-Cyclohexyl-6-methoxy-N-[1-(1-methylethyl)-4-piperidinyl]-7-[3-(1-pyrrolidinyl)propoxy]-4-quinazolinamine	366.65	
1256-87-7	(3α,5β,7α,12α,24R,25R)-Cholestane-3,7,12,24,26-pentol	453.15	
125620-14-6	1,1′-(1,3-Phenylene)bis[1H-tetrazole]	483.65	
125620-16-8	3-(1H-Tetrazol-1-yl)phenol	447.65	
1256245-85-8	3-[[(8α,9S)-6′-Methoxycinchonan-9-yl]amino]-4-[[4-(trifluoromethyl)phenyl]amino]-3-cyclobutene-1,2-dione	486.15	
1256781-60-8	2-(2-Bromo-3,5-dimethylphenyl)-4,4,5,5-tetramethyl-1,3,2-dioxaborolane	324.15	
1256815-07-2	1,4-Bis(1,1-dimethylethyl) 2-(aminomethyl)-1,4-piperazinedicarboxylate	365.65	
125708-07-8	Olitoriusin	470.65	
125709-46-8	3-Ethyl 5-methyl 4-(3,4-dimethoxyphenyl)-1,4-dihydro-2,6-dimethyl-3,5-pyridinedicarboxylate	409.15	
125714-90-1	2-(3,5-Dibromo-2,6-dimethoxyphenyl)-1H-pyrrole	385.15	
125767-33-1	N1-2-Pyrazinyl-1,3-propanediamine	389.15	
1257878-65-1	3-Chloro-5-(2-thienyl)-1,2,4-oxadiazole	311.15	
125812-45-5	7-Iodo-1-methoxy-1H-indole	308.4	
125814-21-3	9H-Fluoren-9-ylmethyl (4S)-4-(2-methylpropyl)-2,5-dioxo-3-oxazolidinecarboxylate	392.15	
125814-23-5	Phenylmethyl (4S)-4-methyl-2,5-dioxo-3-oxazolidinecarboxylate	375.65	
125814-24-6	Phenylmethyl (4S)-4-(2-methylpropyl)-2,5-dioxo-3-oxazolidinecarboxylate	345.9	
125814-28-0	3-Oxazolidinecarboxylic acid, 4-[1-(1,1-dimethylethoxy)ethyl]-2,5-dioxo-, 9H-fluoren-9-ylmethyl ester, [R-(R*,S*)]-	398.65	
125814-30-4	1,1-Dimethylethyl (4S)-4-methyl-2,5-dioxo-3-oxazolidinecarboxylate	376.9	
125814-31-5	1,1-Dimethylethyl (4S)-2,5-dioxo-4-[(phenylmethoxy)methyl]-3-oxazolidinecarboxylate	371.9	
125849-95-8	2,6-Dichloro-3,5-dimethylpyridine	370.65	
125867-26-7	N-[3-(Hydroxyphenylmethyl)-4-pyridinyl]-2,2-dimethylpropanamide	453.15	
1258940-02-1	Piperidine, 3-(4-fluorophenyl)-, hydrochloride (1:1), (3R)-	493.05	
1259-86-5	Glaucarubinone	502.15	
125903-91-5	5-Methyl-2-[4-(trifluoromethyl)phenyl]-4(3H)-pyrimidinone	532.9	
125904-06-5	4-Chloro-5-methyl-2-[4-(trifluoromethyl)phenyl]pyrimidine	385.15	
125926-69-4	Pyrimidine, 2-(3-fluorophenyl)-4-hydrazinyl-	403.65	
125966-89-4	4,6-Dimethoxy-2-pyrimidinecarboxaldehyde	344.15	
125969-76-8	3,3,3-Trifluoro-2-hydroxy-N-(phenylmethyl)propanamide	365.15	
125971-96-2	2-[2-(4-Fluorophenyl)-2-oxo-1-phenylethyl]-4-methyl-3-oxopentanoic acid phenylamide	480.65	
125995-03-1	Atorvastatin lactone	434.15	
1259978-35-2	7-Bromo-2-methoxythieno[3,2-d]pyrimidine	388.75	
1260-04-4	(2β,3β,4α)-2,3-Dihydroxy-27-norolean-13-ene-23,28-dioic acid	573.15	
1260-05-5	1H-Cyclohepta[1,2-a:5,4-a′]dinaphthalene-3,11-diol, 2,3,4,4a,5,6,6a,7,9,9a,10,11,12,13,13a,13b,14,15,15a,15b-eicosahydro-4,4,6a,10,10,13a,15b-heptamethyl-, 3-acetate, (3S,4aR,6aS,9aR,11R,13aR,13bS,15aS,15bR)-	591.15	
126005-91-2	Octadecanoic acid, 1-[3-[4-[2-(benzoylamino)ethyl]phenoxy]-1-methyl-1-propenyl]-4-methyl-3-pentenyl ester, (E)-	338.15	
126015-38-1	(1E)-1-Ethoxy-3,3,3-trifluoro-1-propene		375.15
1260243-51-3	Ethyl 4,5,6,7-tetrahydro-7-(trifluoromethyl)pyrazolo[1,5-a]pyrimidine-3-carboxylate	457.15	
1260247-42-4	9,10-Dihydro-5-hydroxy-9,10-dioxo-1-anthracenesulfonamide	453.15	
126026-45-7	Phenol, 4,4′-[2,6-naphthalenediylbis(oxy)]bis-	444.15	
1260530-43-5	6-(4-Chlorophenyl)-N-ethyl-8-methoxy-1-methyl-4H-[1,2,4]triazolo[4,3-a][1,4]benzodiazepine-4-acetamide	415.65	
126060-09-1	Blazein	448.15	
1260664-64-9	Methyl 5-(trifluoromethyl)-2-pyrimidinecarboxylate	403.15	
126067-60-5	5-Methyl-1-[3-(trifluoromethyl)phenyl]-1H-pyrazole-3-carboxylic acid	463.65	
126069-76-9	2-[(Phenylamino)carbonyl]benzeneacetic acid	462.15	
126118-55-6	8-Bromo-3,7-dihydro-3-methyl-7-(3-methylbutyl)-1H-purine-2,6-dione	465.65	
126120-73-8	4-(4-Methoxyphenyl)-1-methyl-4-piperidinol	390.65	
126127-31-9	N-[2-Hydroxy-1-(hydroxymethyl)ethyl]hexadecanamide	399.4	
126162-96-7	4-Ethoxy-2,3-difluorobenzonitrile	318.15	
126174-82-1	2-[(6-Iodo-1H-benzimidazol-2-yl)thio]acetic acid	475.15	
126189-95-5	(3R,5aS,6R,8aS,9R,12R,12aR)-Decahydro-3,6,9-trimethyl-3,12-epoxy-12H-pyrano[4,3-j]-1,2-benzodioxepin	379.65	
1262010-81-0	2′-Formyl-4-methoxy[1,1′-biphenyl]-2-carboxylic acid	453.15	
126230-75-9	5-(Bromomethyl)-2-(1,1-dimethylethyl)pyrimidine	304.65	
126231-22-9	5-(1,1-Dimethylethyl)-4,5,6,7-tetrahydrobenzo[b]thiophene-2-carboxylic acid	472.15	
126266-77-1	1-(1,3-Benzodioxol-5-yl)-2-phenylethanone	359.15	
1263-80-5	(4aR,16aS)-3,4,4a,5,16a,17,18,19-Octahydro-9,21,22,26-tetramethoxy-4,17-dimethyl-2H-1,24:12,15-dietheno-6,10-metheno-16H-pyrido[2′,3′:17,18][1,10]dioxacycloeicosino[2,3,4-ij]isoquinoline	412.65	
126300-89-8	O-(Difluoromethyl)tyrosine	530.15	
1263000-45-8	(2R)-6-Bromo-1,2,3,4-tetrahydro-2-methylquinoline	322.15	
126310-27-8	6H-Pyrrolo[3,4-b]pyrazine-6-acetic acid, 5,7-dihydro-α-methyl-5,7-dioxo-, (S)-	452.15	
126310-29-0	6H-Pyrrolo[3,4-b]pyrazine-6-acetic acid, 5,7-dihydro-α-(1-methylethyl)-5,7-dioxo-, (S)-	439.15	
126320-77-2	(5S)-4,5,6,7-Tetrahydro-5-methyl-6-(3-methyl-2-buten-1-yl)imidazo[4,5,1-jk][1,4]benzodiazepine-2(1H)-thione	445.15	
126322-23-4	6-Benzothiazolol, 2-chloro-, acetate (ester)	380.15	
126330-90-3	2-Piperazinecarboxylic acid, hydrochloride (1:2), (2R)-	513.65	
126334-37-0	B-(2,3-Difluoro-4-heptylphenyl)boronic acid	338.65	
126378-84-5	2,3-Dihydro-2-phenyl-4(1H)-pyridinone	362.65	
126403-58-5	5-Ethyl-8-methoxyquinoline	376.15	
126411-39-0	P,P,P′,P′-Tetraethyl P,P′-[[3,5-bis(1,1-dimethylethyl)-4-hydroxyphenyl]ethenylidene]bis[phosphonate]	393.65	
126428-97-5	(4S,5R)-4-(Fluoromethyl)-4,5-dihydro-5-[4-(methylsulfonyl)phenyl]-2-phenyloxazole	391.15	
126443-21-8	(2E)-1,3-Bis(4-bromophenyl)-2-propen-1-one	457.65	
126485-55-0	4′-(Trifluoromethyl)[1,1′-biphenyl]-3-methanol	328.65	
1265145-36-5	Ethyl 5-methoxy-3-methyl-7-nitro-1H-indole-2-carboxylate	397.15	
126521-84-4	α-2-Benzothiazolyl-α-methyl-2-benzothiazolemethanol	427.65	
126532-06-7	N-(3,4-Dichlorophenyl)-2-pyrazinecarboxamide	443.15	
126572-99-4	Ethanone, 1-[3-(2-aminoethoxy)phenyl]-, hydrochloride (1:1)	447.15	
1266386-31-5	4-Bromo-2-(tetrahydro-2H-pyran-2-yl)-2H-indazole	350.65	
126654-63-5	Thiazolo[3,2-a]indole-9-carboxaldehyde, 2,3-dihydro-3-hydroxy-3-methyl-	442.65	
126661-83-4	(+)-Cyclophellitol	420.65	
126695-59-8	4-Azido-2,3,5,6-tetrafluorobenzenemethanol	354.15	
126723-16-8	[1,1′-Biphenyl]-3,3′-dipropanoic acid, α3,α3′-diamino-5-[4-[(2S)-2-amino-2-carboxyethyl]phenoxy]-6,6′-dihydroxy-, (α3S,α3′S)-	444.15	
126759-48-6	N-(2-Bromo-5-methylphenyl)acetamide	393.65	
126784-99-4	Ulipristal acetate	457.15	
126790-84-9	4-Chloro-N-(4-pyridinylmethyl)benzenesulfonamide	446.15	
126790-86-1	4-Methoxy-N-(4-pyridinylmethyl)benzenesulfonamide	422.15	
126807-20-3	2-Amino-α-oxo-3-pyridineacetic acid	475.15	
1268340-98-2	Borate(1-), trifluoro[(4-methyl-1-piperazinyl)methyl]-, hydrogen (1:1), (T-4)-	348.65	
1268444-86-5	1-(5-Chloro-2-thienyl)cyclopropanecarboxylic acid	376.15	
1268481-32-8	(2S)-6-(1,1-Dimethyl-2-propen-1-yl)-2,3-dihydro-2-(1-hydroxy-1-methylethyl)-7H-furo[3,2-g][1]benzopyran-7-one	438.15	
126866-16-8	2-(4-Chlorophenyl)-1-(4-fluorophenyl)ethanone	398.15	
126872-02-4	(5R)-5-(1,1-Dimethylethyl)hexahydro-2H-azepin-2-one	424.15	
1268810-09-8	1,1-Dimethylethyl N-(1-ethynylcyclopropyl)carbamate	342.15	
1268810-10-1	3-[1-[[(1,1-Dimethylethoxy)carbonyl]amino]cyclopropyl]-2-propynoic acid	409.15	
1268810-14-5	1-[2-(Trimethylsilyl)ethynyl]cyclobutanecarboxylic acid	343.15	
1268810-15-6	1,1-Dimethylethyl N-[1-[2-(trimethylsilyl)ethynyl]cyclobutyl]carbamate	364.65	
1268810-17-8	Cyclopropanamine, 1-ethynyl-, hydrochloride (1:1)	458.65	
1268810-19-0	Cyclobutanamine, 1-ethynyl-, hydrochloride (1:1)	493.15	
126910-68-7	Methyl 5-chloro-3-(chlorosulfonyl)-2-thiophenecarboxylate	324.15	
1269105-41-0	5-(4-Methoxyphenyl)-3-(2-propen-1-yloxy)-1,2,4-oxadiazole	344.15	
126931-72-4	1H-Pyrrolo[1,2-a]benzimidazolium, 2,3-dihydro-4-octadecyl-, tetrafluoroborate(1-) (1:1)	390.65	
126961-72-6	1-(2-Chlorophenyl)-2-(1H-1,2,4-triazol-1-yl)-1,2-ethanedione 2-oxime	458.65	
127-88-8	N,N-Bis(2-chloroethyl)phosphoramidic dichloride	329.15	
127024-32-2	β-Amino-3-furanpropanoic acid	506.65	
127055-61-2	4-(4-Bromophenyl)-2,4-dihydro-5-(3-pyridinyl)-3H-1,2,4-triazole-3-thione	492.15	
127104-26-1	N-Hydroxy-α-methyl-2-pyridinemethanamine	364.15	
127107-28-2	4-Isoxazolamine, 3,5-dimethyl-, hydrochloride (1:1)	486.15	
127191-99-5	(2Z)-3-Hydroxy-1,3-di-2-thienyl-2-propen-1-one	368.15	
127204-72-2	2-(4-Bromophenyl)imidazo[2,1-b]benzothiazole-3-carboxaldehyde	552.15	
127211-03-4	[1,1′-Biphenanthrene]-2,2′,7,7′-tetrol, 9,10-dihydro-4,4′-dimethoxy-, (-)-	587.65	
1272519-91-1	(5Z)-5-[(4-Methoxyphenyl)methylene]-2-phenyl-4(5H)-thiazolone	468.15	
127274-92-4	2-Piperidinecarboxylic acid, 6-oxo-, ethyl ester	343.15	
127283-65-2	2,3-Dihydro-7-nitro-1-benzoxepin	367.9	
127285-55-6	1,4-Dihydro-4-oxo-8-quinolinecarbonitrile	534.15	
127291-98-9	N-(3,5-Dimethylphenyl)-4-methoxybenzamide	386.65	
127292-03-9	4-Chloro-N-(3,4-dimethylphenyl)benzamide	405.15	
127292-04-0	4-Chloro-N-(3,5-dimethylphenyl)benzamide	404.65	
1273-76-3	Iodoferrocene	317.65	
1273-84-3	Cyanoferrocene	379.15	
127342-09-0	Pyrrolidine, 3-(1-naphthalenyloxy)-, hydrochloride (1:1)	497.65	
127342-10-3	Pyrrolidine, 3-(2-naphthalenyloxy)-, hydrochloride (1:1)	442.15	
127356-34-7	5-Methoxy-6-(methylthio)-3-nitro-2-pyridinamine	437.15	
127378-17-0	5-[(2,5-Dimethoxyphenyl)methylene]-2-thioxo-4-thiazolidinone	516.15	
127404-74-4	(3E)-4-(4-Methylphenyl)-3-butenoic acid	388.65	
127406-56-8	4-(2-Pyridinyl)benzaldehyde	470.15	
127419-64-1	(9S,11bR)-1,3,4,8,9,11b-Hexahydro-5,7,11-trihydroxy-4,4,9,11b-tetramethylphenanthro[3,2-b]furan-6(2H)-one	484.65	
127426-26-0	2,5-Dichloro-4-thiazolecarbonitrile	329.9	
127426-27-1	2,5-Dichloro-4-thiazolecarboxamide	426.15	
127437-33-6	3-Fluoro-4-(2-methylpropoxy)benzeneacetic acid	361.9	
127446-32-6	N-(3-Formyl-6-methyl-2-pyridinyl)-2,2-dimethylpropanamide	404.15	
127446-35-9	N-(4-Formyl-3-pyridinyl)-2,2-dimethylpropanamide	350.15	
127448-92-4	4-(2,6-Dihydroxybenzoyl)-3-formyl-5-hydroxybenzoic acid	515.65	
1274702-35-0	9-(4-Bromophenyl)-10-phenylphenanthrene	518.15	
127475-72-3	1,3-Dioxan-2-one, 5,5-dimethyl-, polymer with 1,3-dioxan-2-one	387.05	
127486-63-9	Benzoic acid, 3-chloro-6-hydroxy-4-methoxy-2-methyl-, (2R,2aS,4aR,7aR,7bR)-3-formyl-2,2a,4a,5,6,7,7a,7b-octahydro-2a,4a-dihydroxy-6,6,7b-trimethyl-1H-cyclobut[e]inden-2-yl ester	426.65	
127500-59-8	Benzoic acid, 2-hydroxy-4-methoxy-6-methyl-, (2R,2aS,4aR,7aR,7bR)-3-formyl-2,2a,4a,5,6,7,7a,7b-octahydro-2a,4a-dihydroxy-6,6,7b-trimethyl-1H-cyclobut[e]inden-2-yl ester	452.65	
127506-06-3	Phenylmethyl N-(2-formylphenyl)carbamate	337.65	
127510-93-4	Ethyl 5-bromo-2-cyanobenzoate	367.65	
127510-95-6	Methyl 2-cyano-5-methoxybenzoate	348.65	
127510-96-7	Benzoic acid, 2-cyano-4-fluoro-, methyl ester	378.15	
127510-97-8	Methyl 2-cyano-5-(methylthio)benzoate	349.15	
127555-23-1	3-Fluoro-1,3-dihydro-3-methyl-1-phenyl-2H-pyrrolo[2,3-b]pyridin-2-one	357.15	
127557-05-5	7,9-Difluoro-3,4-dihydro-1-benzoxepin-5(2H)-one	352.15	
127581-39-9	4,6-Dibromo-2-methyl-5-phenyl-3-pyridinecarbonitrile	418.15	
1276056-84-8	3-Bromo-6-methylimidazo[1,2-a]pyrazine	354.65	
127625-29-0	Fananserin	369.15	
127680-86-8	4-(1-Pyrrolidinyl)-2-pyridinecarbonitrile	392.65	
127680-87-9	2-(1-Pyrrolidinyl)-4-pyridinecarbonitrile	348.65	
127680-88-0	4-(1-Piperidinyl)-2-pyridinecarbonitrile	351.65	
127680-89-1	2-(1-Piperidinyl)-4-pyridinecarbonitrile	316.65	
127680-90-4	4-(4-Morpholinyl)-2-pyridinecarbonitrile	510.65	
127680-91-5	2-(4-Morpholinyl)-4-pyridinecarbonitrile	413.65	
127709-20-0	Methyl 4-bromo-α-hydroxybenzeneacetate	334.15	436.15
127717-19-5	Methyl 4-methylpyrazolo[1,5-a]pyridine-3-carboxylate	381.65	
127722-74-1	Pyridinium, 4-(benzoylamino)-1-methyl-, iodide (1:1)	505.15	
127785-96-0	5H-Dibenz[b,e]azepine-6-methanamine, 6,11-dihydro-, (2E)-2-butenedioate (1:1)	467.65	
127786-29-2	1H-Dibenz[c,f]imidazo[1,5-a]azepin-3-amine, 9,13b-dihydro-, hydrobromide (1:1)	558.15	
127792-76-1	6-(1,1-Dimethylethoxy)-3-nitro-2-pyridineacetonitrile	343.65	
127799-54-6	1,1-Dimethylethyl 2-methylhydrazinecarboxylate	323.15	
127810-64-4	8-Bromo-2-naphthaleneacetonitrile	328.65	
127827-53-6	6-Bromo-5-chloroquinoline	358.15	
127833-45-8	Triacontanenitrile	348.15	
127842-71-1	2-Propenoic acid, 3-[2-(difluoromethoxy)phenyl]-, (E)-	436.65	
127910-61-6	1,1-Dimethylethyl (3aS,4S,6aR)-4-formyltetrahydro-2,2-dimethyl-5H-1,3-dioxolo[4,5-c]pyrrole-5-carboxylate	337.15	
127926-10-7	(1R,2S)-1,2-Dihydro-7-methyl-1,2-naphthalenediol	377.65	
127957-84-0	Ethyl 2-amino-4-(1-methylethyl)-5-pyrimidinecarboxylate	348.15	
127958-02-5	2-Amino-4-propyl-5-pyrimidinecarboxylic acid	552.65	
127958-07-0	2-Methyl-4-propyl-5-pyrimidinecarboxylic acid	373.65	
127958-09-2	4-(1,1-Dimethylethyl)-2-methyl-5-pyrimidinecarboxylic acid	431.65	
127958-24-1	4,5-Dihydro-4,4-dimethyl-3,5,5-triphenyl-1H-pyrazole	394.15	
128-10-9	2,7:3,6-Dimethanonaphth[2,3-b]oxirene, 3,4,5,6,9,9-hexachloro-1a,2,2a,3,6,6a,7,7a-octahydro-	446.15	
128018-44-0	Phenylmethyl N-[(1S)-1-[(2S)-2-oxiranyl]-2-phenylethyl]carbamate	351.65	
1280729-48-7	N-(2-Chlorophenyl)-2-hydroxy-5-iodobenzamide	467.65	
128073-33-6	2,2-Difluoro-1-methylcyclopropanecarboxylic acid	333.15	
128099-76-3	5-Acetyl-1,2-dihydro-6-hydroxy-4H-pyrrolo[3,2,1-ij]quinolin-4-one	463.15	
128102-95-4	6-Methyl-α-(trichloromethyl)-2-pyridinemethanol	405.15	
128156-55-8	4-Benzoxazolecarboxylic acid, 2-methyl-, methyl ester	347.65	
128173-53-5	Butanedioic acid, 2,3-bis[(4-methylbenzoyl)oxy]-, (2S,3S)-, compd. with 4-[(1S)-4-(dimethylamino)-1-(4-fluorophenyl)-1-hydroxybutyl]-3-(hydroxymethyl)benzonitrile (1:2)	407.65	
128241-59-8	Cinchonan-3,9-diol, 6′-methoxy-, (3α,8α,9R)-	430.15	
128242-89-7	5-Ethoxy-N-methyl-2-phenyl-4-oxazolecarboxamide	374.15	
128252-98-2	(6aS)-5-Chloro-9-[(2R,3R)-3-hydroxy-2-methyl-1-oxobutyl]-6a-methyl-3-[(1E,3S)-3-methyl-1-penten-1-yl]-6H-furo[2,3-h]-2-benzopyran-6,8(6aH)-dione	430.65	
128258-74-2	4,5-Bis[(2-chloroethyl)thio]-1,3-dithiol-2-one	315.65	
128269-82-9	Ethyl 5-(methylamino)-2-phenyl-4-thiazolecarboxylate	391.65	
128293-64-1	4-[[(1,1-Dimethylethoxy)carbonyl]amino]-1-methyl-1H-imidazole-2-carboxylic acid	473.65	
128364-68-1	3-Methyl-1-(1-methylethyl)-1H-indazole	329.65	
128373-20-6	[4-(2-Furanyl)phenyl]phenylmethanone	354.15	
128397-09-1	Hyptadienic acid	482.15	
128455-63-0	5-Chloro-1-methyl-3-(trifluoromethyl)-1H-pyrazole-4-carboxylic acid	472.65	
128495-49-8	N-[2-(4-Fluoro-3-methoxyphenyl)ethyl]acetamide	346.15	
128530-03-0	2-Butenedioic acid (2E)-, (2E,6E,10E,14E)-2,6,10,14-tetramethyl-2,6,10,14-hexadecatetraene-1,16-diyl ester	359.65	
128532-95-6	(2E)-3-(2,4-Dihydroxyphenyl)-1-[3-[(1S,5S,6R)-5-(2,4-dihydroxyphenyl)-6-[(5-hydroxy-2,2-dimethyl-2H-1-benzopyran-6-yl)carbonyl]-3-methyl-2-cyclohexen-1-yl]-2,4-dihydroxyphenyl]-2-propen-1-one	414.65	
128544-05-8	(S)-BINOL bis(triflate)	347.65	
128553-97-9	(2E)-1-[3-[(1S,5S,6R)-6-[2,4-Dihydroxy-3-[(1E)-3-methyl-1-buten-1-yl]benzoyl]-5-(2,4-dihydroxyphenyl)-3-methyl-2-cyclohexen-1-yl]-2,4-dihydroxyphenyl]-3-(2,4-dihydroxyphenyl)-2-propen-1-one	443.15	
128593-41-9	6-Bromo-5-methoxy-1H-indole-2-carboxylic acid	556.65	
128595-07-3	Cyclopentyl 2,5-dioxo-1-pyrrolidinyl carbonate	352.15	
128595-08-4	Cyclohexyl 2,5-dioxo-1-pyrrolidinyl carbonate	367.65	
1286694-67-4	1,6-O,O-Diacetylbritannilactone	356.65	
1286793-03-0	5-Acetyl-3,3-difluoro-1,3-dihydro-2H-indol-2-one	481.15	
1286793-04-1	3,3-Difluoro-2,3-dihydro-2-oxo-1H-indole-5-carbonitrile	514.15	
128694-71-3	4-Chloro-1-methyl-3-(trifluoromethyl)-1H-pyrazole-5-carboxylic acid	454.15	
1287-17-8	Ferrocenecarboxamide	439.65	
128700-83-4	2-Propenoic acid, 2-methyl-, (3aR,4S,6R,10S,11S,11aS)-6-(acetyloxy)dodecahydro-11-hydroxy-6,10-dimethyl-3-methylene-2,7-dioxocyclodeca[b]furan-4-yl ester	502.15	
128746-62-3	2,3-Dibromo-1-methyl-1H-indole	312.4	
128788-12-5	Thiophene, 2,3-bis(1,1-dimethylethyl)-, 1,1-dioxide	362.65	
128811-38-1	1-Pyrrolidinecarboxylic acid, 2-(bromomethyl)-5-oxo-, 1,1-dimethylethyl ester, (R)-	339.65	
128833-96-5	Phenylalanine, 2,6-dichloro-, hydrochloride	497.65	
128833-97-6	Phenylalanine, 3,5-dichloro-, hydrochloride	497.65	
128843-59-4	1-Methyl-4-(4-nitrobenzoyl)-1H-pyrrole-2-carboxaldehyde	474.15	
128915-84-4	1,4-Dibromo-2,5-dibutoxybenzene	349.65	
128960-77-0	L-γ-Glutamyl-D-cysteinylglycine	443.15	
128979-27-1	1-(1-Phenyl-1H-1,2,3-triazol-4-yl)ethanone	386.15	
129-24-8	Viridicatin	541.15	