CAS	name	Tm	Tb
2506-41-4	2-(Chloromethyl)naphthalene	321.65	
2506-78-7	2,4-Pentadien-1-aminium, 5-(dimethylamino)-N,N-dimethyl-, perchlorate (1:1)	438.15	
25061-77-2	9,10-Dihydro-9,10-phenanthrenediol	449.15	
25064-07-7	Propanedioic acid, 2-(hydroxymethylene)-, 1,3-dimethyl ester, sodium salt (1:1)	535.65	
25067-06-5	Poly(1-hexene)	256.15	
25067-08-7	1-Dodecene, homopolymer	306.15	
25067-11-2	Hexafluoropropylene-tetrafluoroethylene copolymer	543.15	
25067-21-4	1,4-Benzenedicarboxylic acid, polymer with decanedioic acid and 1,2-ethanediol	505.15	
25067-34-9	Ethylene-vinyl alcohol copolymer	435.15	
25067-59-8	Poly(N-vinylcarbazole)	495.65	
25067-61-2	2-Propenenitrile, 2-methyl-, homopolymer	508.15	
25067-64-5	Dioxolane polymers	327.65	
25067-95-2	1,3-Butadiene, 2,3-dichloro-, polymer with 2-chloro-1,3-butadiene	378.15	
25068-01-3	1,3-Butadiene, polymer with ethene	404.15	
25068-12-6	Ethylene-styrene copolymer	457.15	
25068-14-8	Poly(acrolein)	400.15	
25068-26-2	Poly(4-methyl-1-pentene)	523.15	273.98
25068-38-6	Bisphenol A epoxy resin	342.15	389.15
25068-95-5	Benzeneethanamine, 3-methoxy-α,4-dimethyl-, hydrochloride (1:1)	440.65	
2507-55-3	2-Hydroxytetradecanoic acid	361.35	
2507-88-2	(11β)-11,18-Epoxy-21-hydroxypregn-4-ene-3,20-dione	413.65	
25074-67-3	3-Chlorodibenzofuran	371.65	379.15
25077-25-2	N-Methylglutarimide	303.65	402.15
25077-26-3	4-Methyl-2,6-piperidinedione	417.65	
2508-20-5	2-Nitroso-9H-fluorene	349.65	
2508-29-4	5-Amino-1-pentanol	311.65	494.65
2508-72-7	Antazoline hydrochloride	512.15	
2508-86-3	4-Aminoquinoline 1-oxide	545.15	
25084-14-4	5-Nitro-2-furoyl chloride	311.15	
25084-90-6	2-Propenoic acid, 1,1-dimethylethyl ester, polymer with ethene	363.15	
25085-00-1	Methyl methacrylate-vinyl acetate copolymer	306.15	
25085-34-1	Acrylic acid-styrene copolymer	373.15	
25085-50-1	p-tert-Butylphenol-formaldehyde copolymer	353.15	
25085-53-4	Isotactic polypropylene	449.15	
25085-75-0	Bisphenol A-formaldehyde copolymer	389.15	
25085-99-8	Bisphenol A diglycidyl ether homopolymer	323.15	
25086-73-1	Benzofuran, homopolymer	423.15	
25087-26-7	Poly(methacrylic acid)	538.15	
25087-34-7	1-Butene-ethylene copolymer	400.15	274.07
25092-24-4	Pregn-4-ene-3,20-dione, 21-(acetyloxy)-11-hydroxy-16,17-[(1-methylethylidene)bis(oxy)]-, (11β,16α)-	523.65	
2510-00-1	2-(1,3-Dihydro-2H-inden-2-ylidene)propanedinitrile	464.65	
2510-23-8	3-Ethynylpyridine	307.65	
2510-36-3	3,5-Dimethyl-4-isoxazolecarboxylic acid	315.65	
2510-55-6	9-Phenanthrenecarbonitrile	384.3	
2510-71-6	rel-(9R,10S)-9,10-Dihydro-9,10-phenanthrenediol	451.65	
2510-95-4	α-Cyanostilbene	359.15	
2510-99-8	Ethyl 2-phenylpropionate		502.65
25100-12-3	Cyclohexanamine, N-hydroxy-, hydrochloride (1:1)	415.15	
25101-13-7	Ethylene-methyl methacrylate copolymer	370.15	
25101-45-5	Ethylene-chlorotrifluoroethylene copolymer	515.15	
25102-52-7	1,3-Butadiene, 2-methyl-, polymer with 1,3-butadiene	314.15	
25103-58-6	tert-Dodecyl mercaptan		449.65
25103-74-6	Ethylene-methyl acrylate copolymer	363.15	
25103-87-1	Adipic acid-1,4-butanediol copolymer	331.15	
2511-10-6	O,S-Diethyl P-methylphosphonothioate	264.85	502.55
2511-17-3	N,N,N′,N′,P-Pentamethylphosphonic diamide	269.95	
2511-22-0	Methyl 3,5-bis(1,1-dimethylethyl)-4-hydroxybenzoate	360.65	
25111-96-0	4-[[4-(Dimethylamino)phenyl]methylene]-2,4-dihydro-5-methyl-2-phenyl-3H-pyrazol-3-one	470.65	
25114-70-9	Ethanol, 2,2′,2′′-nitrilotris-, hydrobromide (1:1)	469.65	
25115-74-6	4-Oxo-1-phenylcyclohexanecarbonitrile	387.65	
25116-00-1	N-(2-Cyanophenyl)acetamide	365.15	
25117-75-3	3-Ethoxybenzonitrile		515.65
2512-14-3	Dodecanoic acid, 1,1′-[[(1-oxododecyl)imino]di-2,1-ethanediyl] ester	322.65	
2512-58-5	P,P-Dicyclohexylphosphinodithioic acid	377.15	
25122-41-2	Clobetasol	469.4	
25122-46-7	Clobetasol propionate	469.4	
25122-57-0	Clobetasone butyrate	368.15	
25125-72-8	trans-2,3-Diphenylaziridine	330.65	
25127-29-1	Crebanine	399.15	
25129-20-8	N,N′-Dibenzoyl-L-cystine	463.65	
25129-91-3	(3E,5R,6E,8S,9E,13S,14R)-5-Hydroxy-8-methoxy-5,9,13,14-tetramethyloxacyclotetradeca-3,6,9-trien-2-one	356.65	
25131-98-0	4-(Hexyloxy)benzenepropanoic acid	346.65	
251320-86-2	2-(Dicyclohexylphosphino)-2′-methylbiphenyl	383.15	
25134-01-4	2,6-Xylenol homopolymer	532.65	
25134-15-0	Trimethylsilylcyclopentadiene		412.15
25134-54-7	Ethylene-dimethylaminoethyl methacrylate copolymer	358.25	
25135-51-7	Bisphenol A polysulfone	458.15	
25135-73-3	Dimethyl isophthalate-dimethyl terephthalate-ethylene glycol copolymer	503.15	
25136-55-4	Dimethyl-1,4-dioxane		390.15
25137-00-2	(-)-Nipecotic acid	532.65	
2514-52-5	2,3,4,4,5,5-Hexachloro-2-cyclopenten-1-one	301.15	
2514-53-6	TCA ethadyl	313.15	419.15
25140-86-7	2-(2-Chlorophenoxy)propionic acid	387.65	
25140-95-8	2-(3-Methylphenoxy)propanoic acid	374.15	
25144-04-1	trans-2-Methylcyclopentanol		423.65
25144-05-2	cis-2-Methylcyclopentanol		421.65
25149-50-2	4-(tert-Butylazo)-4-cyanopentanoic acid	355.65	
25150-27-0	6,7-Dichloro-2-benzothiazolamine	514.15	
25150-61-2	Pyrrolidine, hydrochloride (1:1)	391.15	
25151-31-9	N1,N6-Dioctadecylhexanediamide	418.65	
25151-42-2	Morpholine, acetate (1:1)	385.15	
25152-49-2	Rhodamine 19	571.15	
25154-01-2	Phenol, 4,4′-(1-methylethylidene)bis-, polymer with 1,1′-sulfonylbis[4-chlorobenzene]	425.65	
25154-52-3	Nonylphenol	275.15	568.15
25154-54-5	Dinitrobenzene	404.65	582.15
25154-55-6	Nitrophenol	317.15	467.15
25155-15-1	Cymene	205.15	449.65
25155-18-4	Methylbenzethonium chloride	435.15	
25155-83-3	1-Decene, polymer with 4-methyl-1-pentene	503.15	
2516-33-8	Cyclopropanemethanol		396.15
2516-34-9	Cyclobutylamine	407.4	355.15
2516-45-2	Benzoic acid, 2-(2,4-dibromophenyl)hydrazide	446.65	
2516-46-3	N-(2,4-Dibromophenyl)benzenecarbohydrazonoyl bromide	387.15	
2516-47-4	Cyclopropanemethanamine		356.65
2516-95-2	5-Chloro-2-nitrobenzoic acid	412.15	
2516-96-3	2-Chloro-5-nitrobenzoic acid	439.65	
2516-97-4	(Methylsulfonyl)acetic acid	388.15	
25161-41-5	Acevaltrate	353.65	
25167-67-3	Butene	128.15	271.85
25167-70-8	Diisobutylene		374.15
25167-81-1	Dichlorophenol	310.15	
25167-82-2	Trichlorophenol		525.15
25167-94-6	Diphenylpropane		573.15
25168-06-3	Isopropylphenol	357.15	488.15
25168-15-4	2,4,5-T isooctyl ester		683.15
25168-24-5	Acetic acid, 2,2′-[(dibutylstannylene)bis(thio)]bis-, 1,1′-diisooctyl ester	243.15	
25168-26-7	2,4-D isooctyl ester	285.15	590.15
25168-73-4	Sucrose monooctadecanoate	342.15	
2517-04-6	(±)-2-Azetidinecarboxylic acid	490.15	
2517-43-3	3-Methoxybutanol	188.15	433.15
25171-21-5	2-(4-Phenyl-2-quinazolinyl)phenol	443.15	
25171-63-5	Thiocarboxime	364.15	
25173-12-0	(3-Oxoindan-1-yl)acetic acid	427.65	
25173-72-2	3-(3,4,5-Trimethoxyphenyl)propionic acid	371.15	
2518-24-3	3-Aminophthalimide	541.65	
2518-72-1	5-Ethyl-2,4,6(1H,3H,5H)-pyrimidinetrione	498.65	
25183-19-1	Cyclohexanecarboxylic acid, 3-methylbutyl ester		520.15
25186-43-0	N-(1-Methylethyl)-4-nitrobenzenamine	354.65	
25186-47-4	1,3-Dichloro-5-methylbenzene	299.15	474.65
25187-06-8	(2-Chlorophenyl)(2,5-dichlorophenyl)methanone	419.15	
25189-55-3	Poly(N-isopropylacrylamide)	337.15	
25190-06-1	Polytetramethylene glycol	586.15	
25190-89-0	Hexafluoropropylene-tetrafluoroethylene-vinylidene fluoride copolymer	368.15	
25191-04-2	Nylon 6/12	464.15	
25191-15-5	Poly(L-phenylalanine)	615.65	
25191-90-6	Nylon 6/66/610	413.15	
25194-67-6	6-Phenoxy-3-pyridinamine	344.15	
25201-40-5	4-Methyl-1,6-heptadien-4-ol	414.15	431.55
25209-52-3	α-(1-Hydroxycyclopentyl)benzeneacetic acid	369.65	
25212-06-0	Adipic acid-1,6-hexanediol copolymer	333.15	
25212-74-2	Poly(thio-1,4-phenylene)	533.15	
25213-02-9	Ethylene-1-hexene copolymer	389.15	
25213-39-2	2-Propenoic acid, 2-methyl-, butyl ester, polymer with ethenylbenzene	393.15	
25214-24-8	2-Propenoic acid, polymer with 1-propene	439.15	
25214-81-7	1,3-Benzenedicarboxylic acid, polymer with 1,4-benzenedicarboxylic acid, 1,4-butanediol and decanedioic acid	348.15	
2522-81-8	Propanoic acid, 2,2-dimethyl-, 2-oxo-2-phenylethyl ester	332.65	
25229-42-9	3-Cyclohexyl-2-butenoic acid	358.65	
25229-97-4	2-Cyano-3-(4-morpholinyl)-2-propenamide	444.15	
2523-37-7	9-Methylfluorene	319.65	428.15
2523-39-9	3-Methylfluorene	361.65	
2523-44-6	2-Chloro-9H-fluorene	369.65	
2523-48-0	9H-Fluorene-2-carbonitrile	378.15	
2523-56-0	cis-4-Methylcyclohexanamine		425.65
25231-38-3	Poly(oxymethylene) diacetate	348.15	
25234-25-7	2-Ethyloctanoic acid		526.65
2524-02-9	Phosphorothioic chloride difluoride		279.15
2524-04-1	O,O-Diethyl phosphorochloridothioate	198.15	383.15
2524-37-0	Ethyl orsellinate	405.15	
2524-52-9	Ethyl 2-pyridinecarboxylate	274.15	516.15
2524-67-6	4-Morpholinoaniline	403.15	
2524-76-7	1-(Methylthio)-3-nitrobenzene	287.65	
25244-91-1	1-(10H-Phenothiazin-2-yl)-1-butanone	472.15	
25245-33-4	1-Iodo-2,3-dimethoxybenzene	318.65	
25245-34-5	1-Bromo-2,5-dimethoxybenzene		528.15
25248-42-4	Polycaprolactone	338.25	
2525-02-2	4-Propyl-1,2-benzenediol	330.15	
2525-19-1	1,2,6-Trimethylpyridinium iodide	506.15	
2525-41-9	(1-Propyn-1-ylsulfonyl)benzene	342.15	
2525-62-4	Hexyl isocyanate		436.4
25263-97-2	Isobutyl myristate		501.15
25264-93-1	Hexene	175.15	338.15
25265-27-4	Oxirane, 2-(phenoxymethyl)-, homopolymer	468.15	
25265-68-3	Methyltetrahydrofuran		350.65
25265-71-8	Dipropylene glycol		505.05
25265-75-2	Butanediol	291.65	503.15
25265-77-4	Texanol	223.15	530.65
25266-02-8	Maleic anhydride-1-octadecene copolymer	390.15	
25267-51-0	Cyclooctene, homopolymer	290.15	
25269-04-9	2-[[(Aminocarbonyl)oxy]methyl]-2,3-dimethylpentyl N-(1-methylethyl)carbamate	352.15	
2527-57-3	2,2′-Dithiobis[benzamide]	514.65	
2527-58-4	Densil P	489.65	
2527-59-5	2,2′-Dithiobis[N-ethylbenzamide]	476.15	
2527-96-0	Methyl 5-methyl-2-furancarboxylate		478.15
25279-63-4	Cholesteryl 3,5-dinitrobenzoate	470.15	
2528-16-7	Monobenzyl phthalate	377.9	
2528-36-1	Dibutyl phenyl phosphate		404.65
2528-61-2	Heptanoyl chloride	189.35	418.15
25287-79-0	1-Propanone, 3-(dimethylamino)-1,2-diphenyl-, hydrochloride	419.65	
2529-45-5	Fluorogestone acetate	540.65	
25290-13-5	1-(1-Hydroxycyclohexyl)-2-propanone	435.65	
25291-17-2	(Perfluorohexyl)ethylene		377.15
252916-29-3	Orantinib	526.15	
253-45-2	2,7-Naphthyridine	369.65	
253-50-9	2,6-Naphthyridine	387.65	
253-52-1	Phthalazine	363.65	589.15
253-66-7	Cinnoline	311.15	387.15
253-69-0	1,7-Naphthyridine	331.65	
253-72-5	1,6-Naphthyridine	304.65	
253-73-6	Pyrido[2,3-d]pyridazine	425.15	
253-82-7	Quinazoline	321.15	514.15
2530-07-6	Tigogenin acetate	467.15	
2530-30-5	2-Tetradecylbutanedioic acid	383.15	
2530-31-6	2-Hexadecylbutanedioic acid	362.65	
2530-32-7	2-Octylbutanedioic acid	358.65	
2530-33-8	2-Decylbutanedioic acid	367.65	
2530-46-3	Morpholine, 4-dodecyl-, 4-oxide	356.15	
2530-83-8	Glycidoxypropyltrimethoxysilane		393.15
2530-85-0	3-(Trimethoxysilyl)propyl methacrylate		463.15
2530-87-2	3-(Trimethoxysilyl)propyl chloride		373.15
2530-99-6	3,7-Dihydro-3,7-dimethyl-1-(2-propen-1-yl)-1H-purine-2,6-dione	420.15	
25309-64-2	1-Ethyl-4-iodobenzene	262.15	503.15
25309-65-3	4-Ethylbenzonitrile	248.95	
2531-11-5	Monoacetoxyscirpenol	350.65	
2531-80-8	Propanoic acid, 2-nitro-, ethyl ester		463.65
2531-84-2	2-Methylphenanthrene	331.15	430.65
25310-48-9	Mercury, (methanethiolato)methyl-	298.15	
25312-65-6	Cholanic acid	436.65	
25316-40-9	Doxorubicin hydrochloride	477.65	
25316-59-0	Benzyltributylammonium bromide	447.9	
25319-90-8	MCPA-thioethyl	314.65	438.15
2532-50-5	Trisulfide, bis(trichloromethyl)	330.15	
2532-58-3	cis-1,3-Dimethylcyclopentane	139.45	363.95
25321-09-9	Bis(1-methylethyl)benzene	233.15	478.15
25321-14-6	Dinitrotoluene	346.65	523.15
25321-22-6	Dichlorobenzene		405.15
25322-01-4	Nitropropane		403.15
25322-20-7	Tetrachloroethane	229.35	419.65
25322-68-3	Polyethylene glycol	330.65	
25322-69-4	Polypropylene glycol	333.15	
25323-30-2	Dichloroethylene		328.15
25323-58-4	Oxetane, 3,3-bis(chloromethyl)-, homopolymer	448.15	
25323-89-1	Trichloroethane	236.55	386.95
25324-52-1	2-Acetyl-10-methylphenothiazine	343.15	
25327-89-3	Tetrabromobisphenol A diallyl ether	392.15	
25329-35-5	1,2,3,4,5-Pentachloro-1,3-cyclopentadiene	365.15	
2533-20-2	6-Heptadecyl-1,3,5-triazine-2,4-diamine	389.65	
2533-34-8	Lauroguanamine	391.15	
2533-69-9	Ethanimidic acid, 2,2,2-trichloro-, methyl ester	243.15	421.65
2533-82-6	Arsine, methylthioxo-	382.65	
2533-89-3	Erlujixiancaoan	379.65	
25332-05-2	N-(2,6-Dimethylphenyl)-4,5-dihydro-2-thiazolamine	375.15	
25332-39-2	Trazodone hydrochloride	496.15	
25333-25-9	α-[(2-Methoxyphenyl)methylene]benzeneacetic acid	431.15	
25333-42-0	(R)-3-Quinuclidinol	492.15	
25333-79-3	Bicyclo[2.2.1]heptane-1-methanesulfonic acid, 7,7-dimethyl-2-oxo-, (1S)-, compd. with [S-(R*,S*)]-6,7-dimethoxy-3-(5,6,7,8-tetrahydro-4-methoxy-6-methyl-1,3-dioxolo[4,5-g]isoquinolin-5-yl)-1(3H)-isobenzofuranone (1:1)	462.65	
25334-93-4	2-(1-Ethoxyethoxy)propane		390.15
25339-17-7	Isodecanol	280.15	
25339-53-1	Decene	179.15	443.15
25339-56-4	Heptene		366.75
2534-66-9	Octylpyridinium bromide	302.15	
2534-77-2	exo-2-Bromonorbornane		355.15
25340-17-4	Diethylbenzene	242.15	457.15
25340-18-5	Triethylbenzene		487.15
25343-91-3	Thiomorpholine, 4-methyl-, 1,1-dioxide	359.15	
25346-31-0	3-Bromo-3-methylpentane		403.15
25346-32-1	2-Chloro-4-methylpentane		386.15
25346-33-2	1-Bromo-2-methylpentane		414.15
25352-00-5	Bicyclo[3.2.1]octane-2,3,4-trione	436.65	
25354-61-4	Hexadecanoic acid, 2,2-bis(hydroxymethyl)-1,3-propanediyl ester	346.05	
25354-92-1	2-Methylpentadecanoic acid	321.15	
25354-93-2	2-Ethyltetradecanoic acid	303.15	
25354-97-6	2-Hexyldecanoic acid		418.15
25355-20-8	Diheptyl sulfoxide	338.15	
2536-31-4	Chlorflurenol methyl	412.15	
2536-91-6	2-Amino-6-methylbenzothiazole	409.15	
25360-10-5	tert-Nonyl mercaptan		408.15
25364-76-5	1,3-Diethyl 2-(3-phenyl-2-propen-1-ylidene)propanedioate	380.15	
25366-23-8	Thiazafluron	409.65	
253687-18-2	(7Z)-7-Hexadecenedioic acid	370.65	
25369-78-2	5-Chloro-2-mercaptobenzimidazole	578.15	
2537-29-3	Proxibarbal	430.65	
2537-36-2	Tetramethylammonium perchlorate	573.15	
2537-62-4	N-[2-[2-(2-Bromo-6-cyano-4-nitrophenyl)diazenyl]-5-(diethylamino)phenyl]acetamide	514.65	
25371-55-5	Methyl hydrogen P-octadecylphosphonate	339.15	
25376-38-9	Tribromophenol	366.15	
25377-72-4	Pentene	93.15	308.15
25377-73-5	Dodecenylsuccinic anhydride	413.65	
25377-82-6	Tridecene		510.65
25377-83-7	Octene	164.15	396.15
25378-22-7	Dodecene	237.95	486.95
25378-64-7	Ethanaminium, 2-[(2-cyclohexyl-2-phenylacetyl)oxy]-N,N-diethyl-N-methyl-, bromide (1:1)	449.65	
25379-20-8	2-Phenylindolizine	488.15	
2538-68-3	1-Phenazinecarboxylic acid	511.65	
2538-76-3	1,1′-(Phenylmethylene)bis[piperidine]	353.7	
25380-61-4	4-Chloro-1,2-benzisothiazole	356.15	
25384-14-9	Ethanone, 1-(2-aminophenyl)-, hydrochloride (1:1)	537.65	
2539-17-5	Tetrachloroguaiacol	393.15	
2539-21-1	1-Methoxy-2-(1-methylethoxy)benzene		485.65
2539-53-9	4-Ethoxy-3-hydroxybenzaldehyde	398.15	398.15
25390-16-3	Tanghinin	457.15	
25390-17-4	S-(Carboxymethyl)cysteine	448.65	
25390-20-9	1-Phenanthrenecarboxylic acid, 7-[2-[2-(dimethylamino)ethoxy]-2-oxoethylidene]tetradecahydro-1,4a,8-trimethyl-9-oxo-, methyl ester, hydrochloride, [1S-(1α,4aα,4bβ,7E,8β,8aα,10aβ)]-	488.65	
25393-98-0	1,4-Bis(1,2-dibromoethyl)benzene	430.65	
25394-57-4	Spilanthol	296.15	
25395-22-6	Salicylamide O-acetic acid	494.15	
25395-31-7	Glycerol diacetate		532.15
25398-55-4	Acetophenone-formaldehyde copolymer	353.15	
254-04-6	2H-1-Benzopyran		405.15
254-27-3	4H-1,3-Benzodioxin		484.15
254-60-4	1,8-Naphthyridine	371.65	
254-79-5	1,5-Naphthyridine	348.15	
254-87-5	1,2,4-Benzotriazine	348.95	510.65
2540-09-2	7-Chloro-4-methyl-2(1H)-quinolinone	544.65	
2540-31-0	3-Oxo-N,N-diphenylbutanamide	359.65	
2540-35-4	4-Chloro-β-(4-chlorophenyl)benzenepropanoic acid	461.65	
2540-36-5	Carbonodithioic acid, O-(3-methylbutyl) ester	361.15	
2540-82-1	Formothion	298.65	
2540-99-0	3,3′,4,4′-Diphenyl sulfone tetracarboxylic dianhydride	549.65	
25401-86-9	2-Hexadecylphenol	332.65	
25407-11-8	1,1′-(1,2-Ethynediyl)bis[2-nitrobenzene]	462.4	
2541-69-7	7-Methylbenz[a]anthracene	414.15	
25412-75-3	4-Nitrobenzamidine	513.15	
25414-22-6	2-Methoxyfuran		383.65
25415-62-7	Amyl isovalerate	465.65	
25415-67-2	Ethyl 4-methylpentanoate		436.15
25415-84-3	2-Ethylhexyl butyrate		488.15
25417-58-7	N-Octadecylbenzenamine	315.15	
25419-06-1	N-Methylpentylamine		390.15
25423-56-7	1,4,7,10-Tetrathiacyclododecane	488.15	
25425-12-1	Citreoviridin	382.15	
2543-46-6	α-Amino-3,4-dimethoxy-α-methylbenzenepropanenitrile	360.15	
2543-75-1	trans-Octahydro-4a(2H)-naphthalenecarboxylic acid	408.4	
2544-13-0	Benzenepropanenitrile, α-amino-3,4-dimethoxy-α-methyl-, hydrochloride (1:1), (αS)-	427.15	
25441-16-1	dl-Cinnamedrine hydrochloride	448.15	
25447-65-8	Dihydroergocornine	459.15	
25447-66-9	Dihydroergocryptine	453.15	
25448-04-8	Tetrahydroquinoline	398.15	525.65
25448-24-2	Isotridecanoic acid	311.65	
2545-59-7	2,4,5-T Butoxyethyl ester		437.65
25451-15-4	Felbamate	424.65	
25451-53-0	2-Phenyl-1,3-propanediol monocarbamate	346.15	
25452-58-8	Thioperoxydiphosphoric acid ([(HO)2P(S)]2S2), tetrakis(2-methylpropyl) ester	363.15	
25462-38-8	2-(3-Phenylpropyl)-1,3-propanediol	312.6	
25465-65-0	rel-(1R,2R,3S,5S)-2,6,6-Trimethylbicyclo[3.1.1]heptan-3-ol	309.15	490.15
25466-44-8	5,5-Bis(4-methoxyphenyl)-3-[2-(1-piperidinyl)ethyl]-2,4-imidazolidinedione	445.65	
2547-61-7	Trichloromethanesulfonyl chloride	413.65	443.15
2547-66-2	Hexahydro-1,3,5-tris(phenylmethyl)-1,3,5-triazine	493.15	
25470-94-4	3H-Indolium, 2-[3-(1,3-dihydro-1,3,3-trimethyl-2H-indol-2-ylidene)-1-propen-1-yl]-1,3,3-trimethyl-, iodide (1:1)	496.15	
25474-85-5	Carbonazidic acid, (4-methoxyphenyl)methyl ester	303.15	
25485-34-1	Cholesta-4,6-dien-3-ol, 3-benzoate, (3β)-	396.15	
25487-66-5	3-Carboxyphenylboronic acid	519.15	
2549-67-9	2-Ethylaziridine		361.65
2549-87-3	4-(Allyloxy)-2-hydroxybenzophenone	341.15	
2549-93-1	1,4-Cyclohexanedimethanamine	264.15	387.15
25496-72-4	Monoolein	309.15	
25497-29-4	Chlorodifluoroethane	142.35	
25498-06-0	Poly(vinylcyclohexane)	645.65	
2550-02-9	Propyltriethoxysilane		452.65
2550-04-1	Allyltriethoxysilane		449.15
2550-06-3	(3-Chloropropyl)trichlorosilane		454.65
2550-21-2	3-Methyl-2-hexanone		416.65
2550-26-7	4-Phenyl-2-butanone	260.15	506.65
2550-27-8	3-Methyl-4-phenyl-2-butanone	377.65	
2550-28-9	5-Hexyn-2-one		422.15
2550-40-5	Dicyclohexyl disulfide	401.65	
2550-52-9	Cyclohexadecanone	329.15	
2550-73-4	Benzo[1,2-c:4,5-c′]dipyrrole-1,3,5,7(2H,6H)-tetrone	713.15	
2550-75-6	Chlorbicyclen	378.15	447.15
2550-84-7	4,4-Dimethylcholestanol	428.15	
25503-90-6	1-Acetyl-4-piperidinecarboxylic acid	443.65	
25509-07-3	3-(2,6-Dichlorophenyl)-2-ethyl-4(3H)-quinazolinone	440.65	
2551-53-3	Trioctylphosphine sulfide		360.65
2551-62-4	Sulfur hexafluoride	222.35	209.15
2551-83-9	Allyltrimethoxysilane		420.15
25519-77-1	1-[4-(4-Fluorobenzoyl)-1-piperidinyl]ethanone	349.65	
2552-55-8	(±)-Ibotenic acid	424.65	
2552-91-2	Cyclohexanol, 5-methyl-2-(1-methylethyl)-, 1-acetate, (1S,2S,5R)-	310.65	
25522-33-2	trans-Isoferulic acid	504.15	
25522-96-7	Isohumulone	265.65	
25526-04-9	L-Valine, 3-mercapto-, hydrochloride (1:1)	445.65	
25526-93-6	3′-Fluorothymidine	450.15	
2553-04-0	2-Methoxybenzophenone	314.15	
2553-19-7	Diphenyldiethoxysilane		440.15
25536-14-5	6,7-Dihydro-2-methyl-5H-cyclopenta[b]pyridine	308.5	
2554-06-5	1,3,5,7-Tetramethyl-1,3,5,7-tetravinylcyclotetrasiloxane	229.65	497.15
2554-75-8	N,N-Dimethyl-5-nitro-2-pyridinamine	427.65	
25542-62-5	Ethyl 6-bromohexanoate	306.15	
25545-89-5	Ammonium α-naphthaleneacetate	492.65	
25546-09-2	N′-(4-Chloro-2-hydroxyphenyl)-N,N-dimethylurea	448.65	
25546-65-0	Ribostamycin	466.65	
2555-05-7	3-Methyl-2-pyrrolidinone	331.9	
2555-28-4	7-Methoxy-4-methylcoumarin	432.15	
2555-29-5	8-Acetyl-7-hydroxy-4-methylcoumarin	441.15	
2555-37-5	3-Acetyl-4-hydroxycoumarin	407.15	
25550-14-5	Ethyltoluene	438.15	432.65
25550-52-1	Dimethylbenzenethiol		488.15
25551-13-7	Trimethylbenzene	238.1	443.55
25551-17-1	Tolyl sulfone	389.15	
25551-35-3	Naphthalenecarbonitrile	311.15	
25554-84-1	2-[(Ethoxythioxomethyl)thio]acetic acid	327.65	
2556-36-7	1,4-Cyclohexane diisocyanate	328.15	
2556-42-5	Tetrapropylthiuram disulfide	320.9	