CAS	name	Tm	Tb
1897-50-3	5-Chloro-2,4,6-trifluoro-1,3-benzenedicarbonitrile	382.65	
189746-21-2	5-Chloro-2,6-dimethoxy-4-methyl-8-nitroquinoline	473.65	
18977-34-9	2,6-Bis(1-naphthalenylmethylene)cyclohexanone	481.65	
18977-38-3	2,6-Bis(4-dimethylaminobenzylidene)cyclohexanone	356.15	
18977-40-7	2,6-Bis(3-phenyl-2-propen-1-ylidene)cyclohexanone	454.65	
18979-82-3	4-(Pentylthio)phenol	328.65	
18980-22-8	4-Bromo-2-propylphenol	315.15	
189816-05-5	4-Chloro-7-methoxy-2-phenylquinoline	374.4	
189882-33-5	1H-Pyrrolo[2,3-b]pyridine-6-carbonitrile	460.55	
1899-30-5	3-p-Coumaroylquinic acid	520.65	
1899-60-1	6-Ethyl-2-hydrazinyl-4(3H)-pyrimidinone	475.15	
18992-70-6	2,3-Dimethylcarbazole	525.15	
18992-86-4	9H-Carbazol-1-amine	503.15	
18997-54-1	Phenylethyl β-D-glucopyranoside	392.65	
190-60-3	Benz[3,4]anthra[2,1,9,8-opqra]indeno[1,2,3-fg]naphthacene	607.15	
1900-41-0	8-Chloro-4-hydroxy-2(1H)-quinolinone	565.15	
19007-92-2	1-(3-Ethenylphenyl)-1H-pyrrole-2,5-dione	374.15	
190071-24-0	4-(Acetylamino)-3-iodobenzoic acid	503.15	
19012-02-3	1-(1-Methyl-1H-indol-3-yl)ethanone	368.15	
19013-03-7	Eupatoriochromene	353.15	
19013-12-8	Benzoic acid, 4-methyl-3-nitro-, hydrazide	438.65	
19013-50-4	3-Methyl-2-(phenylmethyl)-1H-indole	368.95	
19013-51-5	3-(1,1-Dimethylethyl)-1H-indole	340.15	
19023-45-1	3,5-Dimethyl-4-nitrobenzamide	443.15	
19026-31-4	Taxodione	388.65	
1903-67-9	N,N-Diethyl-4-piperidinecarboxamide	533.65	
1903-91-9	Ethanimidamide, 2-methoxy-, hydrochloride (1:1)	343.15	
1903-92-0	4,6-Dichloro-2-(methoxymethyl)pyrimidine	344.15	
19030-76-3	6-Chloro-5-propyl-2,4(1H,3H)-pyrimidinedione	494.15	
190328-69-9	Methyl 4,7-dimethoxybenzo[b]thiophene-2-carboxylate	397.65	
19037-69-5	7-Hydroxy-4-methyl-8-nitrocoumarin	529.15	
19037-85-5	Ethanedioic acid, 1,2-dianhydride with acetic acid	552.15	
19039-02-2	(4bS,8aS,9S)-5,6,7,8,8a,9-Hexahydro-4,9-dihydroxy-4b,8,8-trimethyl-2-(1-methylethyl)-3(4bH)-phenanthrenone	413.65	
19039-27-1	Acetamide, N,N′-(2-methyl-1,4-phenylene)bis-	487.15	
1904-60-5	3-Amino-2-phenyl-4(3H)-quinazolinone	451.65	
19046-26-5	Wistin	482.65	
190516-88-2	5,7-Dimethoxy-4(1H)-quinolinone	507.15	
19056-81-6	1,3-Diethyl 2-[[(2,4-dichlorophenyl)amino]methylene]propanedioate	385.15	
19057-67-1	Prosapogenin A	486.15	
19063-55-9	6-Bromo-2H-1-benzopyran-2-one	437.15	
19063-56-0	7-Bromo-2H-1-benzopyran-2-one	539.15	
19063-58-2	7-Nitrocoumarin	472.15	
19064-16-5	Benzaldehyde, 2,6-difluoro-, oxime	387.9	
19064-68-7	1-Chloro-4-methylphthalazine	403.15	
19064-74-5	6-Bromophthalazine	383.15	
19070-95-2	2-([1,1′-Biphenyl]-4-yloxy)ethanol	380.15	
19075-34-4	1-[(3-Bromophenyl)thio]-2-propanone		430.65
19075-45-7	6-Bromobenzo[b]thiophene-2-carboxaldehyde	368.65	
19075-58-2	6-Bromobenzo[b]thiophene-2-carboxylic acid	540.15	
19075-59-3	7-Bromobenzo[b]thiophene-2-carboxylic acid	561.15	
19075-61-7	6-Bromobenzo[b]thiophene-3-carboxylic acid	472.65	
19075-62-8	7-Bromobenzo[b]thiophene-3-carboxylic acid	544.15	
190779-62-5	1,3,5-Tris(azidomethyl)-2,4,6-triethylbenzene	334.15	
19078-71-8	α-Bromobenzeneacetamide	416.65	
19078-73-0	3-Bromo-3-phenyl-2-propenoic acid	407.65	
190788-60-4	2-(2-Methoxyphenyl)-4,4,5,5-tetramethyl-1,3,2-dioxaborolane	353.65	
1908-91-4	(4-Methyl-2-thioxo-3-thiazolidinyl)(4-nitrophenyl)methanone	432.9	
19083-00-2	Gracillin	564.65	
19084-28-7	4-(3-Thienyl)pyrimidine	362.15	
19089-64-6	1-Propen-2-ol, 2-propanoate	368.65	386.15
190898-64-7	2-(4-Chlorophenyl)-2-(4-nitrophenyl)-1,3-dioxolane	384.15	
1909-91-7	(+)-Isocupressic acid	382.65	
19102-09-1	2-Phenoxyhexanoic acid	347.9	
19103-56-1	Pyridinium, 1-ethyl-4-[2-(2-hydroxyphenyl)ethenyl]-, iodide (1:1)	462.65	
1911-81-5	7,8,9,10-Tetramethyl 9,10-dihydroazepino[2,1-b]benzothiazole-7,8,9,10-tetracarboxylate	486.15	
19111-78-5	Benzonitrile, 4-methoxy-2,6-dimethyl-, N-oxide	343.15	
19115-31-2	α-Ethynyl-2-hydroxybenzenemethanol	364.65	
19116-95-1	3,5-Dichloro-2-methoxybenzenesulfonamide	480.15	
191171-55-8	2-(4,4,5,5-Tetramethyl-1,3,2-dioxaborolan-2-yl)aniline	340.65	
1912-23-8	(-)-2-Phenoxypropionic acid	356.15	
1912-41-0	7-Chloro-1H-indole-3-acetic acid	437.15	
1912-42-1	1H-Pyrrolo[2,3-b]pyridine-3-acetic acid	487.9	
1912-43-2	2-Methyl-1H-indole-3-acetic acid	472.65	
1912-44-3	6-Chloro-1H-indole-3-acetic acid	456.15	
1912-45-4	5-Chloroindole-3-acetic acid	431.65	
1912-47-6	5-Methyl-3-indoleacetic acid	424.15	
1912-55-6	(3α,5α,12α)-3,12-Dihydroxycholan-24-oic acid	483.15	
19120-01-5	(17β)-17-Methyl-2′H-androsta-2,4-dieno[3,2-c]pyrazol-17-ol	527.15	
191327-87-4	1,1-Dimethylethyl 4-hydroxy-4-(phenylmethyl)-1-piperidinecarboxylate	360.65	
1914-20-1	2-Methoxy-1H-isoindole-1,3(2H)-dione	407.65	
1914-59-6	(3E)-2-Oxo-4-phenyl-3-butenoic acid	330.15	
1914-60-9	2,3-Dihydrobenzofuran-2-carboxylic acid	389.65	
19143-87-4	Gibberellin A20	505.65	
19146-52-2	Benzenemethanamine, α-ethyl-, hydrochloride (1:1), (αS)-	505.65	
19146-54-4	Cyclohexanemethanamine, α-ethyl-, hydrochloride (1:1), (αS)-	539.65	
1915-41-9	N-3-Pyridinyl-3-pyridinamine	402.25	
1915-98-6	2-Hydroxyxanthone	508.65	
19150-32-4	1,4-Cyclohexanediol, 1,4-dibenzoate	359.15	
19152-38-6	3-(4-Chlorophenyl)-1-(4-hydroxyphenyl)-2-propen-1-one	462.15	
19152-40-0	Ethyl 2-[4-(1-oxo-3-phenyl-2-propen-1-yl)phenoxy]acetate	349.65	
19152-93-3	2,4-Diamino-6-phenyl-7(8H)-pteridinone	680.15	
191546-97-1	1,3,4,14b-Tetrahydro-2-methylpyrazino[2,1-a]pyrido[2,3-c][2]benzazepin-10(2H)-one	428.65	
19155-25-0	1,3-Dihydro-3,3-dimethyl-2H-indole-2-thione	381.65	
19156-52-6	4,5-Dimethyl-3-thiophenecarboxylic acid	417.65	
19156-63-9	2-Amino-5-ethyl-3-thiophenecarboxylic acid methyl ester	335.15	
191608-61-4	1,6-Heptadiene-3,5-dione, 1,7-bis(4-hydroxy-3,5-dimethylphenyl)-, (E,E)-	414.15	
19163-43-0	Benzo[b]thiophene-6-ol, 1,1-dioxide	501.4	
19165-27-6	2-[(1-Oxooctadecyl)amino]benzoic acid	386.15	
19166-74-6	4-Amino-1-ethyl-1,2,5,6-tetrahydro-3-pyridinecarbonitrile	371.15	
19181-54-5	8-Methyl-4(3H)-quinazolinone	520.15	
19186-37-9	α-D-Arabinopyranose, 1,2,3,4-tetraacetate	367.15	
19195-46-1	1,2,4-Triazolo[4,3-b]pyridazin-6-amine	557.15	
19202-05-2	(4-Chlorophenyl)-1-pyrrolidinylmethanone	346.4	
19206-91-8	N-(4,6-Dimethyl-2-pyrimidinyl)-2-benzoxazolamine	475.65	
19213-70-8	N-Acetyltaurine	468.15	
19213-73-1	1,5-Pentanediaminium, N1,N1,N1,N5,N5,N5-hexamethyl-, chloride (1:2)	558.15	
192187-32-9	6-(4-Chlorobenzoyl)-4-(3-chlorophenyl)-2(1H)-quinolinone	505.65	
192189-13-2	1,1-Dimethylethyl 5-fluoro-3-iodo-1H-indole-1-carboxylate	349.15	
1923-75-7	Benzenepropanoic acid, 3-[[(dimethylamino)methylene]amino]-2,4,6-triiodo-, hydrochloride (1:1)	536.15	
19230-50-3	2-Iodo-5-nitrobenzoic acid	470.65	
19232-43-0	4-(2,5-Dihydro-2,5-dioxo-1H-pyrrol-1-yl)-2-hydroxybenzoic acid	415.65	
192329-94-5	4-(2-Pyridinyloxy)benzenesulfonyl chloride	431.15	
19235-89-3	4-Chloro-2-cyanopyridine	380.9	
192436-84-3	Methyl (2S,3aS,7aS)-octahydro-1H-indole-2-carboxylate	443.15	
19247-87-1	Benzoic acid, 4-(5-formyl-2-furanyl)-, ethyl ester	387.15	
19249-03-7	Triethylene glycol ditosylate	353.65	
19257-34-2	3,3-Dimethoxyestr-5(10)-en-17-one	360.65	
19263-15-1	2-(Methoxyphenylmethyl)butanedioic acid	416.15	
19263-24-2	Peroxide, bis(3-bromopropionyl)	305.65	
19263-37-7	2,6-Bis(1,1-dimethylethyl)-4-(1-methylethenyl)phenol	352.65	
19264-74-5	9-(4-Methoxyphenyl)carbazole	421.15	
19275-46-8	3-Isomangostin	438.15	
19275-51-5	Cyclomulberrin	504.65	
19275-89-9	α-Methyl-1H-benzimidazole-2-ethanol	494.65	
19276-03-0	1H-Imidazole, 2-(chloromethyl)-1-(phenylmethyl)-, hydrochloride (1:1)	454.65	
192768-38-0	Methyl 4-(3-aminophenoxy)benzoate	373.65	
19278-82-1	5-Hydroxy-3(2H)-benzofuranone	515.15	
19278-85-4	2-Chloro-1-(2,4,5-trimethoxyphenyl)ethanone	439.15	
1928-56-9	Methyl 2-(2,3-dichlorophenoxy)acetate	366.95	
1928-79-6	2,6-Di-1-piperidinyl-9H-purine	487.15	
192803-37-5	3-(1,1-Dimethylethyl)-2,5-dihydroxybenzaldehyde	414.15	
19282-41-8	2-Thiophenecarboxylic acid, 5-(4-bromophenyl)-, ethyl ester	352.65	
19282-45-2	Ethyl 4,5,6,7-tetrahydrobenzo[b]thiophene-2-carboxylate	303.15	
192869-50-4	5,6,7,8-Tetrahydropyrido[4,3-d]pyrimidine	459.65	
1929-89-1	N-Phenyl-2-furancarboxamide	397.15	
19293-62-0	4,4′-Dimethoxybenzhydrylamine	331.65	
19298-29-4	4-Phenyl-1H-2,3-benzoxazin-1-one	435.9	
192997-23-2	1-[(4-Fluorophenyl)methyl]-1H-indole-3-carboxaldehyde	389.65	
1930-84-3	1,2-Dichloro-4-isocyanobenzene	305.65	
1930-96-7	1-Chloro-4-isocyano-5-methoxy-2-methylbenzene	366.65	
193001-91-1	2-Chloro-6-methoxy-4-pyridinemethanol	365.65	
193014-02-7	Benzoic acid, 3-(acetylamino)-2-nitro-, ethyl ester	406.15	
19303-49-2	(5-Methoxy-3-benzofuranyl)phenylmethanone	343.65	
19307-16-5	17-Octadecenoic acid	328.4	
19309-14-9	Cardamonin	477.15	
19310-98-6	8-Methyl-1-naphthalenecarboxylic acid	426.15	
19312-13-1	2′,5′-Dihydroxychalcone	488.15	
19314-14-8	N-(4-Ethoxyphenyl)propanamide	393.15	
19315-93-6	6-Hydroxy-2(1H)-quinolinone	603.15	
1932-37-2	N-(3,4-Dichlorophenyl)-N′-phenylthiourea	409.7	
1932-38-3	N-Phenyl-N′-propylurea	360.15	
193224-22-5	Feruloylserotonin	380.65	
193275-85-3	4-[2-[4-[(11S)-3,10-Dibromo-8-chloro-6,11-dihydro-5H-benzo[5,6]cyclohepta[1,2-b]pyridin-11-yl]-1-piperidinyl]-2-oxoethyl]-1-piperidinecarboxamide	425.15	
19335-14-9	1H-Indazole-3,5-diamine	453.15	
193357-26-5	Piperidine, 4-[(2-fluorophenyl)methyl]-, hydrochloride (1:1)	452.15	
19336-70-0	2-[[(4-Methylphenyl)amino]carbonyl]benzoic acid	430.15	
19336-83-5	2-[[(4-Bromophenyl)amino]carbonyl]benzoic acid	463.15	
19336-90-4	2-[[[4-(Dimethylamino)phenyl]amino]carbonyl]benzoic acid	430.15	
19337-97-4	trans-3-(3-Pyridyl)acrylic acid	506.15	
19339-65-2	3-Chloro-3-methyl-1(3H)-isobenzofuranone	415.15	
193410-84-3	Zeylenone	424.15	
19347-74-1	6-Chloro-1-(3,4-dimethoxyphenyl)-1-hexanone	317.65	
19349-84-9	3-Pyridinamine, 4-nitro-N-phenyl-, 1-oxide	453.15	
1935-17-7	6-Oxocamphor	453.15	
19350-69-7	4-Methylbenzenesulfonic acid 2-[(4-chlorophenyl)methylene]hydrazide	420.15	
19350-76-6	4-Methylbenzenesulfonic acid 2-(3-pyridinylmethylene)hydrazide	427.65	
19351-64-5	5-Ethenyl-6-(β-D-glucopyranosyloxy)-4,4a,5,6-tetrahydro-1-oxo-1H,3H-pyrano[3,4-c]pyran-3-yl 6-hydroxy-2,6-dimethyl-2,7-octadienoate	459.15	
19353-96-9	2-Propyl-4-pyridinecarboxylic acid hydrazide	348.15	
19354-32-6	2-Methoxybenzothiophene	314.65	
19357-22-3	2-(3-Bromophenyl)-1H-isoindole-1,3(2H)-dione	422.15	
19358-05-5	2,2-Dimethyl-4-methylene-1,3-dioxolane		378.15
1936-18-1	Salutaridine	473.65	
19365-03-8	3-Hydroxy-2-oxo-1(2H)-pyridineacetic acid	477.15	
193693-68-4	1-(9H-Fluoren-9-ylmethyl) (3S)-1,3-piperidinedicarboxylate	433.65	
1938-71-2	1,6-Hexanediamine, N1,N1,N6,N6-tetramethyl-, hydrochloride (1:2)	512.65	
19380-83-7	N-[(2-Chlorophenyl)methyl]hydrazinecarboximidamide	444.15	
19382-50-4	1,2-Dihydro-1,5-diphenyl-3H-1,2,4-triazol-3-one	561.15	
19395-40-5	2-Piperidineacetic acid, α-phenyl-, hydrochloride (1:1)	521.15	
193954-27-7	(3R,4S)-3-[[(9H-Fluoren-9-ylmethoxy)carbonyl]amino]-4-methylhexanoic acid	372.15	
19396-77-1	3,5-Diacetyl-2,6-dimethyl-4H-pyran-4-one	395.15	
19397-75-2	Ethyl 1,4,5,6-tetrahydro-1-methylcyclopenta[b]pyrrole-2-carboxylate	311.15	
19398-06-2	Hydrazine, (2-ethylphenyl)-, hydrochloride (1:1)	452.15	
19398-12-0	1,2,4,5-Tetrahydro-3H-2,4-benzodiazepine-3-thione	563.15	
19398-79-9	3,4-Diethyl-2-hexene		427.15
1940-29-0	4-Bromo-3,5-dichlorobenzenamine	399.15	
1940-30-3	2-Bromo-4,5-dichlorobenzenamine	365.15	
1940-31-4	N-(2-Bromo-4,5-dichlorophenyl)acetamide	445.65	
1940-45-0	6-Bromo-2,3-dichlorophenol	361.15	
1940-81-4	2,3-Dibromo-4-hydroxy-5-methoxybenzenemethanol	416.65	
194085-75-1	Carisbamate	402.15	
19411-57-5	Methyltripropylstannane		368.15
19415-51-1	5-Fluoro-2-methoxybenzaldehyde	318.15	
19418-96-3	2-(1-Methylethyl)benzeneacetic acid	342.15	
19420-57-6	1-Stearoyl-sn-glycero-3-phosphocholine	423.15	
19427-82-8	Selinidin	370.65	
194282-76-3	2-Amino-4-(4-methoxyphenyl)-7-methyl-5-oxo-4H,5H-pyrano[4,3-b]pyran-3-carbonitrile	485.15	
194351-52-5	L-Leucinamide, N-(2-cyanoethyl)-L-valyl-N-phenyl-	418.15	
194351-53-6	L-Leucinamide, N-(2-hydroxyethyl)-L-valyl-N-phenyl-	392.15	
19436-07-8	Gibberellin A12 aldehyde	434.15	
19437-87-7	4-Benzo[b]thien-2-ylbenzoic acid	593.15	
194423-06-8	N-[4-[(3-Bromophenyl)amino]-6-quinazolinyl]-2-butynamide	548.15	
194423-15-9	PD 168393	552.15	
194490-14-7	5-Chloro-1H-indole-3-carbonitrile	471.65	
194490-18-1	Ethyl 5-(1,1-dimethylethyl)-1H-indole-2-carboxylate	410.15	
194490-19-2	5-(1,1-Dimethylethyl)-1H-indole-2-carboxylic acid	493.15	
19457-55-7	6-Methyleneandrost-4-ene-3,17-dione	437.15	
194613-77-9	2,3-Dimethyl 1-acetyl-1,2-dihydro-2,3-quinolinedicarboxylate	411.15	
194655-98-6	Bis[4-(ethylmethylamino)phenyl]methanone	366.15	
19466-41-2	Rubrosterone	503.15	
19467-03-9	Melittoside	440.65	
19467-24-4	Benzene-1,2-d2	277.65	353.1
19479-86-8	4,5,6,7-Tetrahydro-4,7-methanoisobenzofuran-1,3-dione	366.15	
1948-29-4	γ-Glu-Gly	466.65	
1948-48-7	3-Aminopentanedioic acid	506.15	
1948-82-9	Oxalosuccinic acid	353.65	
194800-57-2	P-(4-[2,2′:6′,2′′-Terpyridin]-4′-ylphenyl)phosphonic acid	653.15	
19482-08-7	3-Chloro-4-methyl-1,1′-biphenyl	306.69	
19485-38-2	1-Methyl-1H-imidazole-4,5-dicarboxylic acid	535.65	
1949-42-4	3-(Acetylmethylamino)-5-amino-2,4,6-triiodobenzoic acid	548.15	
19490-91-6	α,α-Diphenyl-3-pyridinemethanol	510.65	
19490-94-9	α-Methyl-α-phenyl-4-pyridinemethanol	414.15	
19492-87-6	Benzo[b]thiophene, 5-bromo-, 1,1-dioxide	417.4	
19492-96-7	1-Benzo[b]thien-3-yl-1-propanone	351.65	
19492-97-8	1-Benzo[b]thien-2-yl-1-propanone	356.15	
194924-96-4	1-(1,1-Dimethylethyl) 2-methyl 3-oxo-1,2-pyrrolidinedicarboxylate	328.65	
19493-45-9	3-Chloroisoquinoline	318.65	
19498-74-9	3-(3,4-Dichlorophenyl)-2-propynoic acid	456	
1950-69-2	4-Methylbenzenesulfonyl bromide	366.65	
19500-02-8	3-Methoxy-2-methylaniline	304.15	
19500-62-0	Quinoline, 1,2,3,4-tetrahydro-7-methoxy-, hydrochloride (1:1)	454.15	
19506-34-4	2,3-Diethyl 5,8-dimethoxy-2,3-quinoxalinedicarboxylate	437.9	
195062-61-4	4-Chlorophenylboronic acid pinacol ester	310.15	
1951-37-7	2-Methoxy-1,3-benzenedicarboxaldehyde	378.65	
19513-90-7	[3-(Bromomethyl)-3-(4-nitrophenyl)-2-oxiranyl](4-nitrophenyl)methanone	442.65	
195136-63-1	1,3-Difluoro-2,4-dimethoxy-5-nitrobenzene	305.4	
195136-65-3	5-Fluoro-2,4-dimethoxybenzenamine	321.15	
195143-52-3	Argpyrimidine	480.15	
1952-41-6	Desmethoxyyagonin	412.15	
19532-41-3	1-(4-Bromophenyl)-1H-pyrazole-3-carboxylic acid	466.15	
19533-92-7	Alphitolic acid	506.15	
1954-63-8	1-Piperidineundecanoic acid, methyl ester, hydrochloride (1:1)	404.65	
1954-95-6	4-(Acetylamino)-2-chlorobenzenesulfonyl chloride	396.15	
19542-09-7	3-Hydrazinyl-5,6-dimethyl-1,2,4-triazine	419.65	
19542-37-1	(2S)-2-(Dimethylamino)-4-methyl-N-[(3R,4S,7S)-3-(1-methylethyl)-7-[(1R)-1-methylpropyl]-5,8-dioxo-2-oxa-6,9-diazabicyclo[10.2.2]hexadeca-10,12,14,15-tetraen-4-yl]pentanamide	552.9	
19542-54-2	N-[(Phenylmethoxy)carbonyl]-L-valyl-L-valine	412.9	
1955-67-5	N-Hydroxy-L-glutamine	427.15	
19551-04-3	1,2-Phenanthrenediol	451.15	
19555-50-1	Piperidine, 1-phenyl-, 1-oxide	442.15	
1956-36-1	Benzaldehyde, 3-ethoxy-4-methoxy-, oxime	371.15	
1956-40-7	1-(1-Naphthalenyl)ethanone oxime	410.15	
1956-42-9	(4-Methylphenyl)-2-thienylmethanone oxime	396.9	
19573-83-2	2,5-Dichloro-4,6-dimethylpyrimidine	336.65	
19578-69-9	2,4-Dichloro-1-(phenylmethoxy)benzene	334.65	
19578-70-2	1-(Benzyloxy)-2-methylbenzene	333.15	
19580-38-2	2-Propenoic acid, [(4-fluorophenyl)iminomethyl]azanyl ester	372.65	
195883-06-8	YM 262	383.15	
19591-18-5	N-(2-Iodo-4-nitrophenyl)acetamide	411.65	
19594-45-7	2-Amino-4-methyl-5-pyrimidinemethanamine	426.15	
19597-17-2	1-(2,5-Dimethyl-1H-pyrrol-3-yl)-2-(4-phenyl-1-piperazinyl)ethanone	411.65	
19606-93-0	3,10′-Bi-10H-phenothiazine	472.65	
1961-73-5	D-glycero-D-manno-Heptose	409.15	
1961-97-3	3-Phenylindene	440.15	
19614-15-4	Ethyl 4-(4-morpholinyl)benzoate	357.15	
19617-46-0	N,N,N′-Tris(phenylmethyl)urea	389.65	
1962-14-7	Acacic acid	548.65	
19620-88-3	2-Bromo-1-(1H-indol-3-yl)-1-butanone	463.65	
19621-92-2	6-Hydroxypicolinic acid	555.15	
19622-83-4	(2S,3R,4S,4aR)-3,4,4a,5-Tetrahydro-2,3,4-trihydroxy[1,3]dioxolo[4,5-j]phenanthridin-6(2H)-one	488.15	
19625-79-7	4-Methoxy-N,N-dimethylbenzeneacetamide	353.15	
1963-86-6	Curan-17-oic acid, 2,16,19,20-tetradehydro-12-hydroxy-, methyl ester, (19E)-	427.65	
19634-30-1	Methyl (8S)-5,6,7,8-tetrahydro-8-methyl-6-oxo-2,7-naphthyridine-4-carboxylate	448.4	
19637-58-2	(1R,2R,4S,4aS,11aR,13aS)-Decahydro-1,2,4-trihydroxy-2-methyl-5H,9H,12H-indeno[7a,1-h]indolizin-12-one	483.65	
1964-28-9	5-Methyl-2-(methylthio)-γ-oxobenzenebutanoic acid	411.15	
19645-78-4	5-Bromo-2,4,6(1H,3H,5H)-pyrimidinetrione	486.65	
19647-71-3	Phenylmethyl N-[(1S)-2-[(4-nitrophenyl)amino]-2-oxo-1-(phenylmethyl)ethyl]carbamate	432.15	
19652-33-6	5-Bromo-3-chloro-2-hydroxybenzaldehyde	374.15	
19654-17-2	2-[(Phenylmethyl)thio]benzothiazole	313.65	
19654-19-4	2-(4-Bromophenyl)benzothiazole	405.15	
196597-17-8	N-[2-(1,6,7,8-Tetrahydro-2H-indeno[5,4-b]furan-8-yl)ethyl]propanamide	376.15	
196597-76-9	6,7-Dibromo-2,3-dihydro-5-benzofuranpropanoic acid	390.65	
196597-78-1	1,2,6,7-Tetrahydro-8H-indeno[5,4-b]furan-8-one	406.65	
196597-82-7	N-[(2E)-2-(2,3-Dihydro-6-methoxy-1H-inden-1-ylidene)ethyl]propanamide	403.15	
196597-84-9	N-[2-[(1S)-5-Bromo-2,3-dihydro-6-hydroxy-1H-inden-1-yl]ethyl]propanamide	420.15	
196597-85-0	N-[2-[(1S)-5-Bromo-2,3-dihydro-6-(2-propen-1-yloxy)-1H-inden-1-yl]ethyl]propanamide	359.65	
1966-17-2	Hydrazine, (5-fluoro-2-nitrophenyl)-	402.15	
1967-89-1	1,4-Dichloro-2,3,5,6-tetramethylbenzene	464.15	
19678-69-4	5-Methyl-4-(1-methylethoxy)thieno[2,3-d]pyrimidine	308.15	
1968-19-0	3-Chloro-1-methyl-3-nitro-2,4(1H,3H)-quinolinedione	507.65	
1969-74-0	3H-Indol-3-one, 2-phenyl-, 1-oxide	459.65	
19691-80-6	Athidathion	316.65	
196929-78-9	(R)-2-Methylpropane-2-sulfinamide	374.65	
19693-56-2	7-Methyl-1,7-naphthyridin-8(7H)-one	393.15	
19693-76-6	2-(4-Ethenylphenyl)-1,3-dioxolane		378.15
1970-42-9	2,3,5-Trichloro-4-methoxypyridine	335.15	
19701-39-4	4-Quinolinamine, 3-methoxy-, 1-oxide	500.15	
19701-89-4	N,N-Dimethylalanine	458.15	
19705-61-4	(11β,16α)-21-(Acetyloxy)-3-(2-chloroethoxy)-9-fluoro-11-hydroxy-16,17-[(1-methylethylidene)bis(oxy)]-20-oxopregna-3,5-diene-6-carbonitrile	487.15	
1971-50-2	2-Acetyl-2,3-dihydro-3-hydroxy-1H-isoindol-1-one	436.9	
1971-59-1	17,17-Dimethyl-18-norandrosta-4,13-dien-3-one	341.15	
19716-26-8	Stigmasterol 3-O-β-D-glucopyranoside	572.15	
19717-25-0	1-[2-(3,4,5-Trimethoxyphenyl)ethyl]-1H-pyrrole-2-carboxylic acid	405.15	
19725-18-9	Piperidine, 3-(3-methoxyphenyl)-, hydrochloride (1:1)	411.15	
19725-44-1	7-Methoxy-2-methylisoflavone	409.15	
19725-49-6	2-(4-Nitrophenyl)-4H-1-benzopyran-4-one	518.15	
19725-82-7	4-Bromo-2-carboxybenzeneacetic acid	478.65	
19728-77-9	2H-Quinolizine-3-carboxylic acid, octahydro-, ethyl ester, trans-	434.65	
1973-61-1	25-Azacholesterol	426.9	
19731-02-3	1H-Benzimidazole-2-acetic acid, hydrazide	477.65	
19733-56-3	4-(3-Piperidinyl)benzenamine	369.65	
19733-57-4	Benzenamine, 4-(3-piperidinyl)-, hydrochloride (1:2)	499.15	
19733-98-3	6-Methyl-3-pyridineacetamide	432.15	
19734-06-6	1,1,4-Triphenyl-1H-2,3-benzoxazine	411.15	
19734-67-9	Piperidine, 3-cyclohexyl-, hydrochloride (1:1)	434.9	
19740-32-0	Spiro[cyclopropane-1,2′-tricyclo[3.3.1.13,7]decane]	389.05	
19745-72-3	Ethanone, 2-amino-1-(4-hydroxyphenyl)-, hydrochloride (1:1)	521.65	
19746-58-8	5,8-Dihydro-8-oxo-1,3-dioxolo[4,5-g]quinoline-7-carboxylic acid	584.65	
19747-15-0	3,3′-(1-Oxo-1,3-propanediyl)bis[2(3H)-benzoxazolone]	459.15	
1975-45-7	6-Nitro-1-naphthalenecarboxylic acid	500.4	
1975-81-1	1H-Indol-5-ol, 3-[2-(methylamino)ethyl]-, ethanedioate (1:1)	428.15	
19752-57-9	1,3-Dibromo-5-iodobenzene	396.15	
19753-67-4	3-Methyl-1-(triphenylphosphoranylidene)-2-butanone	450.65	
19757-65-4	Azidocyclopropane		352.65
19764-31-9	N-Acetyl-D-isoleucine	423.65	
19764-90-0	Quinolinium, 1-ethyl-4-[7-(1-ethyl-4(1H)-quinolinylidene)-1,3,5-heptatrien-1-yl]-, iodide (1:1)	438.15	
19771-56-3	Hymenocardine	534.15	
19777-67-4	1,2-Propanediamine, hydrochloride (1:2), (2R)-	510.15	
1978-98-9	3-Bromo-1,1-dichloro-1-fluoropropane		409.15
19786-36-8	L-Prolyl-L-tyrosine	490.15	