CAS	name	Tm	Tb
1540-94-9	N-Isobutylacetamide	393.15	500.15
15400-53-0	Ethyl 2-amino-1,4-dihydro-4-oxo-5-pyrimidinecarboxylate	558.15	
15401-69-1	Benzo[g]-1,3-benzodioxolo[5,6-a]quinolizinium, 5,6-dihydro-9-hydroxy-10-methoxy-, chloride (1:1)	518.15	
15402-79-6	(±)-2,4,6-Trimethoxyamphetamine	473.15	
15403-25-5	N1,N1,N2,N2-Tetrafluoro-1,2-propanediamine		356.15
15403-56-2	1-(Methylamino)-4-[(1-methylethyl)amino]-9,10-anthracenedione	489.65	
15404-00-9	p-Toluenesulfonic acid triethylamine salt	311.15	
15407-81-5	4-Pyridinecarboxylic acid, 2-cyclohexylidenehydrazide	444.15	
15409-60-6	2-[(Dimethylamino)methyl]cyclohexanone	422.15	
1541-19-1	Carbamic acid, N-cyclohexyl-, ethyl ester	330.15	
1541-67-9	Lauryldiethanolamine	292.95	
1541-81-7	N-Dodecylmorpholine	288.15	
15411-19-5	Dichloromethyl[2-(trichlorosilyl)ethyl]silane	278.15	474.15
154189-24-9	2(3H)-Benzothiazolone, 4-hydroxy-7-[2-[[2-[[3-(2-phenylethoxy)propyl]sulfonyl]ethyl]amino]ethyl]-, hydrochloride (1:1)	494.15	
15419-94-0	2-Hydroxy-4-(acryloyloxy)benzophenone	303.15	
15420-57-2	2,5-Bis(3-pyridyl)-1,3,4-oxadiazole	461.15	
15421-15-5	Potassium ascorbate	472.15	
15421-84-8	Trapidil	373.15	
154229-18-2	Abiraterone acetate	417.65	
15423-85-5	Pregna-1,4-diene-3,20-dione, 9-fluoro-11-hydroxy-16-methyl-17-[(1-oxopentyl)oxy]-, (11β,16β)-	468.15	
15423-89-9	Dexamethasone 17-propionate	499.15	
15424-14-3	N-Phenylbenzenecarbohydrazonoyl chloride	367.65	
15424-17-6	2-Butenoic acid, 3-(1-pyrrolidinyl)-, methyl ester	339.65	
15430-52-1	2-Propyn-1-amine, hydrochloride	451.65	
15435-60-6	2,7,12,18-Tetramethyl 3,8,13,17-tetrakis(2-methoxy-2-oxoethyl)-21H,23H-porphine-2,7,12,18-tetrapropanoate	532.15	
15435-71-9	Sodium acetylacetonate	483.15	
15436-11-0	[(1E)-2-(Methylsulfonyl)ethenyl]benzene	350.65	
154361-50-9	Capecitabine	361.65	
15437-14-6	N-(4-Ethoxyphenyl)benzamide	447.15	
15438-65-0	Methyl N-(hydroxymethyl)carbamate	334.65	
15438-70-7	N,N′-Bis(2-hydroxyethyl)urea	356.15	
15438-71-8	N-(Hydroxymethyl)-2-pyrrolidone	351.4	
154382-35-1	4-(Dodecylsulfonyl)butanoic acid	403.4	
1544-46-3	Acetaldehyde, fluoro-		294.15
1544-68-9	4-Fluorophenyl isothiocyanate	297.65	
1544-86-1	1-(Difluoromethoxy)-4-nitrobenzene	303.65	
15441-87-9	N′-(2,5-Dichlorophenyl)-N,N-dimethylurea	385.15	
15443-52-4	N-(2-Methylpropyl)cyclohexanamine		466.15
15444-20-9	Lysicamine	482.15	
154447-35-5	2-(4-Morpholinyl)-4H-naphtho[1,2-b]pyran-4-one	541.15	
15445-34-8	L-Lysine, methyl ester, hydrochloride (1:?)	469.65	
15446-39-6	N,N′-(1,2-Diazenediyldi-4,1-phenylene)bis[acetamide]	598.15	
15448-47-2	(+)-Propylene oxide		308.15
15448-58-5	2,3-Epoxy-2,3-dihydro-1,4-naphthoquinone	406.65	
15448-99-4	N-Methylsaccharin	403.15	
15450-05-2	4,5-Dihydro-2-propyl-1H-imidazole	308.45	
15451-00-0	3-Sulfinobenzoic acid	470.65	
15453-08-4	2,2,3-Trifluoro-3-(1,1,2,3,3-pentafluoro-2-propen-1-yl)oxirane		310.15
15453-10-8	2,2,3-Trifluoro-3-(1,1,2,2,3,4,4-heptafluoro-3-buten-1-yl)oxirane		332.15
15457-05-3	Fluorodifen	367.15	
15458-61-4	9-Oxabicyclo[3.3.1]nonane-2,6-diol	401.65	
15458-87-4	2,2,4,4,6,6-Hexaethylcyclotrisilazane	232.15	
154598-52-4	Efavirenz	413.15	
1546-79-8	1-(Trifluoroacetyl)imidazole		410.65
1546-95-8	2,2,3,3,4,4,5,5,6,6,7,7-Dodecafluoroheptanoic acid		465.15
15462-91-6	3-[2-(3,4-Dimethoxybenzoyl)-4,5-dimethoxyphenyl]-2-pentanone	429.65	
15467-25-1	2-Methoxy-1-butanol	346.15	419.65
15468-32-3	Tridymite (SiO2)	1976.15	2503.15
15469-77-9	3-Decenoic acid	291.15	
1547-26-8	2,3,3,4,4,5,5-Heptafluoro-1-pentene		330.15
1547-36-0	4,4,4-Trifluoro-3-hydroxy-3-(trifluoromethyl)butanoic acid	362.4	
15471-17-7	3-(1-Pyridinio)-1-propanesulfonate	546.15	
15473-32-2	N-Phenyldecanamide	342.85	
15474-63-2	Dysprosium iodide (DyI3)	1228.15	
1548-74-9	4-Amino-2,3,5,6-tetrafluorobenzamide	444.4	
15480-00-9	2-(2-Chlorophenoxy)ethanol	380.65	
15481-48-8	Stannane, bis(benzoylthio)dibutyl-	324.65	
15482-60-7	N,N-Dimethylbenzenecarbothioamide	340.15	
15485-76-4	Ethyl 5,7-dihydroxy-3-(4-methoxyphenyl)-4-oxo-4H-1-benzopyran-2-carboxylate	462.65	
15486-19-8	3-[4-(Acetyloxy)phenyl]-2-propenoic acid	478.9	
15486-33-6	Kaempferol-7,4′-dimethyl ether	454.15	
15486-34-7	5-Hydroxy-3,7,4′-trimethoxyflavone	418.65	
15492-52-1	(OC-6-11)-Tris(2,2,6,6-tetramethyl-3,5-heptanedionato-κO3,κO5)ytterbium	436.15	
15498-10-9	3-Octyl-2-oxiraneoctanamide	367.15	
15498-31-4	Ethylene adipate	304.65	
15498-42-7	2-Butenedioic acid (2Z)-, 1,1′-(1,2-ethanediyl) ester	384.65	
155-04-4	Zinc 2-mercaptobenzothiazole	603.15	
155-09-9	Tranylcypromine	301.15	
155-16-8	5-Fluoro-1-methyl-2,4(1H,3H)-pyrimidinedione	532.15	
155-30-6	Methyl 1-thio-β-D-galactopyranoside	447.65	
155-41-9	(-)-Scopolamine methobromide	488.65	
155-58-8	Rhaponticin	503.15	
155-84-0	N-Acetyl-L-arginine	488.15	
155-90-8	4-Methoxy-2-pyrimidinamine	392.65	
155-91-9	Sulfadimethoxypyrimidine	444.65	
1550-09-0	1-Chloro-6-fluorohexane		441.15
1550-35-2	2,4-Difluorobenzaldehyde	338.65	335.65
15500-60-4	N,N-Bis(trimethylsilyl)formamide		345.15
15500-66-0	Pancuronium bromide	488.15	
15503-86-3	Retrorsine, N-oxide	418.15	
15503-87-4	Usaramine	452.15	
15507-52-5	Cholesteryl methyl carbonate	388.15	
1551-21-9	Isopropyl methyl sulfide	171.65	357.95
1551-27-5	2-Propylthiophene		431.15
1551-43-5	Cyclohexyl valerate		497.65
1551-44-6	Cyclohexyl butyrate		486.15
15510-55-1	Dodecyltriphenylphosphonium bromide	366.4	
15511-81-6	Hexanedioic acid, compd. with 1,6-hexanediamine (1:?)	456.65	
15513-16-3	N-Cyclohexyl-2-pyridinamine	398.65	
15513-52-7	2,6-Dimethyl-3-nitropyridine	310.15	498.15
155179-21-8	Vanicoside B	431.15	
15518-82-8	Acetic acid, 2-[(7-hydroxy-4-methyl-2-oxo-2H-1-benzopyran-6-yl)oxy]-, compd. with 7-[2-(diethylamino)ethyl]-3,7-dihydro-1,3-dimethyl-1H-purine-2,6-dione (1:1)	397.15	
15518-84-0	2-Oxo-2-phenylethyl 4-morpholineacetate	332.65	
1552-42-7	Crystal Violet lactone	450.65	
1552-46-1	5-Methyl-2-[4-[2-(5-methyl-2-benzoxazolyl)ethenyl]phenyl]benzoxazole	527.15	
1552-47-2	5-(1,1-Dimethylethyl)-2-[4-[2-[5-(1,1-dimethylethyl)-2-benzoxazolyl]ethenyl]phenyl]benzoxazole	525.15	
1552-67-6	Ethyl 2-hexenoate		447.65
1552-94-9	5-Phenyl-2,4-pentadienoic acid	438.15	
1552-96-1	4-(Dimethylamino)cinnamic acid	489.15	
155206-00-1	Bimatoprost	340.65	
15521-18-3	2-(Dimethylamino)-1-propanol		423.45
15521-50-3	(8-Quinolinolato-κN1,κO8)silver	570.15	
15522-23-3	(SP-4-2)-[N1-[2-(Amino-κN)ethyl]-1,2-ethanediamine-κN1,κN2]chloroplatinum(1+)	330.65	
15525-13-0	Methanaminium, N,N,N-trimethyl-, tetraphenylborate(1-) (1:1)	642.15	
155270-99-8	Istradefylline	464.15	
15529-90-5	Chloro(triethylphosphine)gold	359.15	
1553-34-0	Methixene hydrochloride	482.65	
1553-52-2	4-Chloro-N-[5-(1,1-dimethylethyl)-1,3,4-thiadiazol-2-yl]benzenesulfonamide	436.65	
1553-56-6	Dehydrolithocholic acid	413.65	
1553-59-9	4-[2-(5-Nitro-2-furanyl)ethenyl]benzamide	530.65	
1553-60-2	Ibufenac	359.15	
15533-77-4	Benzeneacetic acid, α-ethyl-, 2-(diethylamino)ethyl ester, hydrochloride (1:1)	379.65	
15536-75-1	2-Methoxyethanethioamide	336.65	
15537-55-0	cis-Sabinene hydrate	310	
15537-71-0	N-Acetylpenicillamine	456.15	
15545-48-9	Chlortoluron	420.65	
15545-97-8	2,2′-Azobis(4-methoxy-2,4-dimethylvaleronitrile)	346.15	
15546-42-6	Phosphonium, 1,1′-(1,4-butanediyl)bis[1,1,1-triphenyl-, bromide (1:2)	566.15	
15546-43-7	N,N,N′,N′-Tetraphenylbenzidine	500.15	
15548-56-8	4-Cyclopentene-1,2,3-trione	449.15	
15548-61-5	6-Bromo-2-naphthalenyl β-D-glucopyranoside	479.65	
1555-58-4	3,3′-(Methylimino)bis[propanenitrile]	321.65	
1555-62-0	3,3′-(Dodecylimino)bis[propanenitrile]	310.15	
1555-66-4	3,3′-(Phenylimino)bis[propanenitrile]	354.15	
1555-94-8	8-Ethoxyquinoline	558.15	493.15
15554-47-9	(OC-6-11)-Tris(2,4-pentanedionato-κO2,κO4)yttrium	404.15	
1556-18-9	Iodocyclopentane		439.65
1556-99-6	4-Methylfluorene	345.15	
15564-30-4	1-Ethynyl-2-methylcyclohexanol	330.15	
15570-12-4	3-Methoxybenzenethiol	539.5	497.65
15570-18-0	Phenyl 2-mercaptobenzoate	356.65	
15570-45-3	1,1′,1′′,1′′′-(1,3-Cyclopentadiene-1,2,3,4-tetrayl)tetrakis[benzene]	453.15	
15572-30-2	6-Bromo-2-naphthalenyl β-D-galactopyranoside	478.15	
15572-56-2	2-Propanamine, hydrochloride (1:1)	367.15	
15572-79-9	L-Galactose	434.15	
15574-49-9	Mecarbinate	480.65	
15574-96-6	Pizotifen	437.15	
15579-15-4	1H-Indazol-5-ol	457.15	
1558-17-4	4,6-Dimethylpyrimidine	298.15	432.15
1558-23-2	Dimethyl-s-tetrazine	347.15	
1558-24-3	Trichloro(dichloromethyl)silane		418.15
1558-25-4	Trichloro(chloromethyl)silane		391.15
1558-31-2	Dichloro(dichloromethyl)methylsilane	230.15	422.15
1558-33-4	Dichloro(chloromethyl)methylsilane	394.15	394.65
15584-10-8	3-(4-Fluorophenyl)-7-hydroxy-4H-1-benzopyran-4-one	508.65	
15585-70-3	Bibenzonium bromide	418.65	
15585-88-3	Carbamic acid, N,N-diphenyl-, 2-(diethylamino)ethyl ester	453.15	
15587-72-1	Rubidium hydrogen sulfate	518.15	
15589-00-1	2,5-Dimethoxy-4-methylamphetamine hydrochloride	462.15	
15589-64-7	Isoquinolinium, 2-(3-sulfopropyl)-, inner salt	565.15	
1559-02-0	Diethyl 1,1-cyclopropanedicarboxylate		489.15
1559-34-8	Tetraethylene glycol monobutyl ether		464.65
1559-35-9	Ethylene glycol mono-2-ethylhexyl ether		502.15
1559-36-0	Diethylene glycol mono(2-ethylhexyl) ether		545.15
1559-86-0	2-Bromo-1,3,4,5-tetrafluorobenzene		414.65
1559-87-1	1,3-Dibromo-2,4,5,6-tetrafluorobenzene	279.15	
1559-88-2	3-Bromo-1,2,4,5-tetrafluorobenzene		419.15
15591-70-5	1H-Indole-3-butanoic acid, methyl ester	346.65	
15592-29-7	1-Isocyanato-2,2-dimethylpropane		378.15
15592-33-3	β-D-Glucopyranose, 1-thio-, 1-[N-(sulfooxy)ethanimidate], monopotassium salt	482.15	
15592-36-6	Glucocheirolin	441.15	
15593-82-5	Sodium silicate (Na6Si2O7)	1396.15	
15596-27-7	D-Mannitol, 1,2,3,4,5,6-hexa-3-pyridinecarboxylate	505.15	
15597-46-3	Methanaminium, N,N,N-trimethyl-, thiocyanate	581.65	
15597-63-4	Phosphorous dichloride fluoride	128.95	287
15598-34-2	Pyridine, perchlorate (1:1)	561.15	
15599-39-0	Noxythiolin	362.15	
15599-52-7	Broquinaldol	398.65	
156-06-9	Phenylpyruvic acid	430.15	
156-10-5	4-Nitrosodiphenylamine	417.65	565.15
156-25-2	N,N-Dimethyl-4-[2-(3-pyridinyl)diazenyl]benzenamine	394.65	
156-28-5	2-Phenylethylamine hydrochloride	496.65	490.15
156-34-3	(-)-Amphetamine		476.15
156-38-7	Hydroxyphenylacetic acid	425.15	
156-39-8	4-Hydroxyphenylpyruvic acid	491.15	
156-43-4	4-Ethoxyaniline	275.55	527.15
156-44-5	N-(5-Nitrofurfurylidene)aniline	397.15	
156-51-4	Phenelzine sulfate	440.15	
156-54-7	Sodium butyrate	524.15	
156-56-9	Hypoglycin A	555.15	
156-57-0	Cysteamine hydrochloride	343.6	
156-59-2	cis-1,2-Dichloroethene	193.15	333.25
156-60-5	trans-1,2-Dichloroethylene	223.35	321.85
156-62-7	Calcium cyanamide	1613.15	
156-72-9	Methanediol, 1,1-dimethanesulfonate	348.65	
156-81-0	2,4-Diaminopyrimidine	422.65	
156-83-2	2,4-Diamino-6-chloropyrimidine	473.65	
156-86-5	L-Homoarginine	481.15	
156-87-6	3-Amino-1-propanol	285.55	460.65
1560-06-1	1-Phenyl-2-butene		449.15
1560-11-8	1-Cyclopentene-1-carboxylic acid	392.15	
1560-28-7	1-Chloro-1,1,2,2,2-pentamethyldisilane		407.65
1560-42-5	Phosphoric acid, dioctyl ester, sodium salt (1:1)	551.65	
1560-54-9	Phosphonium, triphenyl-2-propen-1-yl-, bromide (1:1)	482.15	
1560-96-9	2-Methyltridecane	252.15	381.65
1560-97-0	2-Methyldodecane		376.15
15600-01-8	1,1,2,2,3,3-Hexachloropropane		491.65
15600-08-5	Cholestan-3-one	399.65	
15606-95-8	Triethyl arsenate		509.65
1561-06-4	3-(Tetradecyloxy)-1,2-propanediol	328.15	
1561-07-5	1-O-Dodecylglycerol	335.65	
1561-10-0	Hexanoic acid, 4-methyl-, ethyl ester		453.15
1561-11-1	(±)-4-Methylhexanoic acid		485.15
1561-75-7	Dihexadecyl disulfide	323.15	
1561-86-0	2-Chlorocyclohexanol	302.15	
1562-00-1	Sodium isethionate	466.15	
1562-71-6	Guanidine, N-[2-(3,6-dihydro-4-methyl-1(2H)-pyridinyl)ethyl]-, sulfate (1:1)	458.65	
1562-93-2	4-(2-Phenyldiazenyl)benzoic acid	522.15	
1562-94-3	Diazene, 1,2-bis(4-methoxyphenyl)-, 1-oxide	400.15	
1562-95-4	Di-2-pyridinylmethanone oxime	378.15	
156223-05-1	DMXB-A	489.65	
15629-92-2	Dichloro[1,1′-(1,3-propanediyl)bis[1,1-diphenylphosphine-κP]]nickel	488.15	
1563-38-8	Carbofuran phenol		393.65
1563-56-0	2-(2-Amino-5-bromobenzoyl)pyridine	370.65	
1563-66-2	Carbofuran	424.15	
1563-67-3	Decarbofuran	390.65	
1563-83-3	N-Acetyl-N-ethylacetamide		470.15
1563-84-4	N-Acetyl-N-propylacetamide		475.15
1563-85-5	N-Acetyl-N-(1-methylethyl)acetamide		470.15
1563-86-6	N-Acetyl-N-butylacetamide		494.65
1563-90-2	N,N-Dibutylacetamide	515.65	
1564-53-0	9-Benzoylanthracene	421.15	
1564-64-3	9-Bromoanthracene	373.15	
1564-71-2	1-Amino-2-bromo-4-(phenylamino)-9,10-anthracenedione	503.15	510.15
15641-58-4	2,2,3,3-Tetramethylcyclopropanecarboxylic acid	394.15	
15646-46-5	Oxazolone	368.15	
15647-11-7	3-(Aminomethyl)-3,5,5-trimethylcyclohexanol	318.65	538.15
1565-17-9	4-Acetylbenzenesulfonamide	451.65	
1565-75-9	α-Ethyl-α-methylbenzenemethanol	268.15	
1565-80-6	(S)-2-Methyl-1-butanol	403.15	
1565-81-7	3-Decanol		486.15
15655-33-1	Octadecanoic acid, 1,1′-[(2-heptadecyl-4(5H)-oxazolylidene)bis(methylene)] ester	349.15	
1566-41-2	N-(4-Hydroxyphenyl)urea	561.15	
1566-42-3	N-(4-Methoxyphenyl)urea	441.15	
15662-33-6	Ryanodine	492.65	
15663-27-1	Cisplatin	543.15	
15664-29-6	Pheophorbide a	466.15	
1567-75-5	1-(1-Methylcyclopropyl)ethanone		399.15
1567-89-1	2-Propanone, 2-(2,4-dinitrophenyl)hydrazone	399.65	
156727-74-1	SNC 80	396.05	
15674-67-6	β-Alanine, N,N-diethyl-, hydrochloride (1:1)	411.15	
15676-16-1	(±)-Sulpiride	451.15	
15679-12-6	2-Ethyl-4-methylthiazole		435.15
15679-24-0	2,7-Dimethylpyrene	461.65	
15679-25-1	4,5-Dimethylpyrene	484.15	
1568-11-2	3-Phenyl-2-propenal 2-(3-phenyl-2-propen-1-ylidene)hydrazone	449.15	
1568-80-5	2,2′,3,3′-Tetrahydro-3,3,3′,3′-tetramethyl-1,1′-spirobi[1H-indene]-6,6′-diol	486.65	
1568-83-8	1,1′-(1-Methylethylidene)bis[4-methoxybenzene]	324.65	
15685-17-3	Bis(diethyldithiocarbamato)manganese	443.15	
15686-33-6	Biclotymol	401.65	
15686-71-2	Cephalexin	437.15	
15686-83-6	Pyrantel	451.65	
15686-91-6	Propiram		435.65
15687-05-5	N-[4-(2,2,2-Trichloro-1-hydroxyethoxy)phenyl]acetamide	432.65	
15687-07-7	Cyprazepam	511.65	
15687-13-5	1-Dodecanaminium, N-[2-(4-chlorophenoxy)ethyl]-N,N-dimethyl-, bromide (1:1)	395.15	
15687-14-6	Embutramide	343.15	
15687-18-0	Fenpentadiol	349.65	
15687-22-6	6,7-Dihydroxy-4-(4-morpholinylmethyl)-2H-1-benzopyran-2-one	505.15	
15687-27-1	Ibuprofen	349.15	414.65
156897-06-2	Licofelone	429.65	
1569-01-3	1-Propoxy-2-propanol	193.15	421.65
1569-02-4	1-Ethoxy-2-propanol		404.15
1569-15-9	7-Amino-4-methyl-1,8-naphthyridin-2(1H)-one	678.15	
1569-44-4	3-Methyl-5-hexen-3-ol		343.15
1569-50-2	(±)-3-Penten-2-ol		395.15
1569-59-1	3-Methyl-4-penten-2-ol		398.65
1569-60-4	6-Methyl-5-hepten-2-ol		448.15
1569-69-3	Cyclohexanethiol	155.15	432.05
15690-25-2	(2E)-3-(2-Thienyl)-2-propenoic acid	420.15	
15690-55-8	Zuclomiphene	324.15	
15690-57-0	Enclomiphene	347.15	
157-03-9	6-Diazo-5-oxo-L-norleucine	423.15	
157-06-2	D-Arginine	511.15	
157-22-2	3H-Diazirine		259.15
157-33-5	Bicyclo[1.1.0]butane		280.95
157-40-4	Spiro[2.2]pentane	138.55	312.15
1570-45-2	Ethyl isonicotinate	296.15	492.65
1570-48-5	3-Propionylpyridine	447.15	
1570-64-5	4-Chloro-2-methylphenol	324.15	496.15
1570-65-6	2,4-Dichloro-6-methylphenol	326.65	
1570-86-1	1-[(4-Methylphenyl)methyl]cyclopropanecarbonyl chloride	360.15	
1570-95-2	2-Phenyl-1,3-propanediol	324.9	
15706-73-7	(±)-Butyl 2-methylbutanoate		452.15
15707-23-0	2-Ethyl-3-methylpyrazine		330.15
15707-24-1	2,3-Diethylpyrazine		454.15
15707-32-1	2-Chloro-3-methoxy-1,4-naphthalenedione	420.65	
1571-08-0	Methyl 4-formylbenzoate	335.65	408.15
1571-13-7	Tetrachlorophthalimide	615.15	
1571-20-6	4,5,6,7-Tetrachloro-2-dodecyl-1H-isoindole-1,3(2H)-dione	399.65	
1571-30-8	8-Hydroxyquinoline-2-carboxylic acid	468.15	
1571-33-1	Phenylphosphonic acid	437.65	
1571-72-8	3-Amino-4-hydroxybenzoic acid	478.15	
1571-86-4	1,4-Dibutylbenzene	243.15	
15717-29-0	Silicic acid (H4SiO4), tetracyclohexyl ester	365.15	
1572-10-7	3-Amino-5-phenylpyrazole	399.65	
1572-52-7	2-Methyleneglutaronitrile	407.65	
15720-25-9	5-Methyl-2-oxo-4-imidazolidinehexanoic acid	435.9	
15721-02-5	2,2′,5,5′-Tetrachlorobenzidine	408.15	
15721-05-8	2,2,4,4,6,6,8-Heptamethylcyclotetrasiloxane	246.15	
15723-90-7	Benzenecarboximidamide, 4-nitro-, hydrochloride (1:1)	565.25	
15724-70-6	N,N′-3,6-Acridinediylbis[acetamide]	543.15	
15724-86-4	(2E)-3-Chloro-1-phenyl-2-propen-1-one	295.65	
15726-15-5	3-Methyl-4-heptanone		427.15
15727-65-8	1-Ethynylnaphthalene	274.65	
15727-77-2	Allyl isobutyrate		400.65
1573-17-7	2-Butyne-1,4-diol, 1,4-diacetate	302.9	
1573-58-6	1,2,3-Trichloro-1,3-butadiene		306.65
1573-92-8	9-Fluorenone-1-carboxylic acid	465.65	
15733-83-2	4-Methoxy-2-quinolinecarboxylic acid	469.65	
15733-85-4	8-Nitro-2-quinolinecarboxylic acid	455.15	
15733-89-8	2-Hydroxycinchoninic acid	616.15	
1574-10-3	Benzaldehyde, semicarbazone	497.65	
1574-33-0	3-Methyl-3-penten-1-yne		339.65
1574-34-1	3-Methylene-1-pentyne		335.15
1574-41-0	cis-1,3-Pentadiene	132.35	317.25
15741-79-4	N-Benzyltryptamine	389.65	
15743-13-2	2,2,4,5-Tetrachloro-4-cyclopentene-1,3-dione	338.15	
1575-37-7	4-Bromo-1,2-benzenediamine	334.65	
1575-59-3	(2Z)-4-Oxo-2-butenoic acid	325.65	
1575-96-8	2-Methyl-1-naphthalenecarboxylic acid	399.65	
15753-50-1	cis-1,2-Cyclohexanedimethanol	315.65	
1576-13-2	4,4′-Propylidenebis[phenol]	405.15	
1576-17-6	N-Methoxy-N-methyl-N′-phenylurea	334.65	
1576-35-8	Tosylhydrazine	446.15	
1576-37-0	N-Benzyl-p-toluenesulfonamide	386.15	
1576-43-8	4-Hydroxybenzenesulfonamide	451.15	
1576-48-3	N-Phenyl-2-naphthalenesulfonamide	405.15	
1576-67-6	3,6-Dimethylphenanthrene	418.15	
1576-69-8	2,7-Dimethylphenanthrene	374.65	
1576-84-7	3-Buten-1-ol, 1-acetate		398.15
1576-85-8	4-Penten-1-yl acetate		422.65
1576-87-0	(E)-2-Pentenal	413.65	
1576-95-0	cis-2-Penten-1-ol		411.15
1576-96-1	trans-2-Penten-1-ol		411.15
15760-26-6	Methyl N-cyanocarbamimidothioate	448.15	
15761-38-3	Boc-L-alanine	355.65	
15761-39-4	BOC-L-Proline	408.65	
15764-04-2	α-Vetivone	324.65	
15767-75-6	Glutamic acid, hydrochloride (1:1)	445.15	
1577-03-3	1-(4-Chlorophenyl)-4,4-dimethyl-1-penten-3-one	358.4	
1577-18-0	trans-3-Hexenoic acid	285.15	
15770-21-5	Di-1H-pyrrol-2-ylmethanone	433.65	
15774-82-0	2-Methylthioxanthone	396.15	
15777-86-3	N,N-Diethyl-1,3-benzodioxole-5-carboxamide	338.15	
1578-63-8	α-Fluorobenzeneacetic acid	357.15	
15780-02-6	Tetrapropylammonium perchlorate	511.15	
157810-81-6	Indinavir sulfate	424.65	
15787-87-8	3-Chloro-1-(4-nitrophenyl)-2-propen-1-one	365.15	
15788-16-6	1H-Benzimidazole-5-carboxylic acid	598.15	
1579-21-1	rel-(4aR,8aS)-Octahydro-2(1H)-naphthalenone	259.15	
1579-40-4	1,1′-Oxybis[4-methylbenzene]	324.15	558.15
1579-78-8	3-(4-Fluorophenoxy)propanoic acid	359.15	
15793-40-5	Terodiline		404.15
15793-77-8	2-Hydrazinoquinoline	415.15	
15795-19-4	3-[(4-Bromophenyl)methylene]-2,4-pentanedione	350.15	
1580-50-3	2-Phenyl-5-(4-fluorophenyl)-1,3,4-oxadiazole	420.15	
1580-83-2	Paraflutizide	512.15	
15802-18-3	Cyanoacrylic acid	366.65	
15802-80-9	3-(1,1-Dimethylethyl)-1H-pyrazole	326.65	
15802-97-8	1,4,5-Trimethyl-1H-pyrazole	448.65	449.65
15805-10-4	6,6′-Methylenebis[1H-benzotriazole]	512.15	
15806-20-9	1-Phenyl-2-(phenylmethyl)hydrazine	308.15	563.15
15809-19-5	Myramistin	327.15	
1581-13-1	2-Amino-2′-fluorobenzophenone	400.15	
15814-30-9	1,5-Diphenyl-1,4-pentadiyn-3-one	337.65	
1582-09-8	Trifluralin	319.65	
15821-36-0	6-(3-Buten-1-yl)-1,3,5-triazine-2,4-diamine	466.65	
15823-89-9	1,2,4-Oxadiazole-4(5H)-ethanamine, N,N-diethyl-5-imino-3-phenyl-, hydrochloride (1:1)	427.65	
15825-70-4	Mannitol hexanitrate	380.15	
15826-91-2	N-(Phenyl-2,3,4,5,6-d5)acetamide	388.65	
15827-34-6	2,6-Bis[(dimethylamino)methyl]phenol		407.65
15829-53-5	Mercury oxide (Hg2O)	373.15	
1583-58-0	2,4-Difluorobenzoic acid	462.15	
1583-59-1	2,2-Difluoro-1,3-benzodioxole		402.65
1583-67-1	3-Fluorophthalic acid	440.65	
1583-83-1	1-(Difluoromethoxy)-4-methylbenzene	439.15	439.15
15832-21-0	1,2,3,4-Tetrahydro-1-(1H-indol-3-ylmethyl)-6,7-dimethoxyisoquinoline	429.65	
15833-80-4	3,3-Dimethyl-1,2,4-butanetriol	345.15	
15834-33-0	Phosphorodithioic acid	326.15	
15837-08-8	3,9-Dimethylxanthine	623.15	
1584-03-8	Perfluoro(2-methyl-2-pentene)	322.15	323.65