CAS	name	Tm	Tb
1466-48-4	Tris(2-cyanoethyl)nitromethane	387.15	
1466-67-7	N,N′-Dibenzylurea	440.15	
1466-76-8	2,6-Dimethoxybenzoic acid	459.15	
1466-82-6	Acetylsalicylic anhydride	358.15	
1466-88-2	2-Nitrocinnamaldehyde	400.15	
14663-46-8	3-Amino-4(3H)-quinazolinone	477.15	
14667-54-0	Bis(1H-benzimidazol-1-yl)methanone	455.65	
14667-55-1	Trimethylpyrazine	429.15	444.65
1467-05-6	4-Ethylbenzyl chloride		365.65
1467-35-2	2,3,4-Trimethylbenzenamine	297.15	512.15
1467-40-9	1,5-Diphenyl-1,3,5-pentanetrione	371.15	
1467-70-5	α-Oxo-2-furanacetic acid	367.65	
1467-79-4	Dimethylcyanamide	232.15	436.65
14670-04-3	Ethyl 3-chloro-4-methoxybenzoate	349.15	
14673-56-4	2-(1-Methylethylidene)-N-phenylhydrazinecarbothioamide	401.15	
14675-77-5	1-Propanamine, 3-(10,11-dihydro-5H-dibenzo[a,d]cyclohepten-5-ylidene)-N-methyl-, 4-methylbenzenesulfonate (1:1)	448.15	
14676-01-8	β-[[(1,1-Dimethylethoxy)carbonyl]amino]benzenepropanoic acid	417.15	
14678-02-5	5-Amino-3-methylisoxazole	357.65	
14678-05-8	5-Isoxazolamine	349.15	
1468-28-6	N-Benzoylmorpholine	346.9	
1468-37-7	Dimexano	296.4	
1468-39-9	Isovaleric anhydride		488.15
1468-83-3	3-Acetylthiophene	333.15	483.15
1468-95-7	9-Anthracenemethanol	431.15	
14684-54-9	4-Hydroxy-6,7-dimethylpteridine	630.65	
14685-29-1	2,4,6,8-Tetrabutyl-2,4,6,8-tetramethylcyclotetrasiloxane		564.15
14686-13-6	trans-2-Heptene	163.65	371.15
14686-14-7	trans-3-Heptene	136.55	368.85
14686-61-4	N-Methyl-N-[(7S)-5,6,7,9-tetrahydro-1,2,3,10-tetramethoxy-9-oxobenzo[a]heptalen-7-yl]formamide	461.15	
14688-12-1	2-Amino-5-nitrobenzenesulfinic acid	460.65	
14689-56-6	5,7-Dibromo-4,6-dichloro-2-(trifluoromethyl)-1H-benzimidazole	538.15	
14689-97-5	1,1-Bis(2-chloroethoxy)ethane		468.15
1469-48-3	cis-1,2,3,6-Tetrahydrophthalimide	410.05	
1469-94-9	1-(2-Hydroxyphenyl)-3-phenyl-1,3-propanedione	361.15	
14690-00-7	2-(Phenylmethoxy)-1,3-propanediol	312.4	
14690-01-8	1,3-Bis(hexadecyloxy)-2-propanol	331.4	
146900-30-3	9-Ethyldodecahydro-1H-carbazole	316.15	
14691-01-1	7,14-Methano-2H,11H-dipyrido[1,2-a:1′,2′-e][1,5]diazocin-11-one, dodecahydro-, (7S,7aR,14S,14aR)-, perchlorate (1:1)	522.15	
14691-88-4	4-Amino-2,2,6,6-tetramethylpiperidine-1-oxyl	308.65	
14691-89-5	4-Acetamido-TEMPO	418.15	
14692-45-6	N,N-Diethyl-9,10-dihydro-9,10-ethanoanthracene-11-methanamine	351.15	
146939-27-7	Ziprasidone	577.15	
14694-95-2	(SP-4-2)-Chlorotris(triphenylphosphine)rhodium	496.15	
14697-46-2	(±)-1,2,5-Pentanetriol		463.65
14697-48-4	1,6-Diheptyl hexanedioate	277.3	
14697-50-8	2,2′-Oxybis[4,4,6-trimethyl-1,3,2-dioxaborinane]		273.425
14698-07-8	Tipepidine citrate	408.15	
14698-29-4	Oxolinic acid	588.15	
147-14-8	Copper phthalocyanine	753.15	
147-24-0	Diphenhydramine hydrochloride	441.15	
147-47-7	2,2,4-Trimethyl-1,2-dihydroquinoline	393.15	533.15
147-58-0	N-(2-Iodobenzoyl)glycine	443.15	
147-61-5	5-(Hydroxymethyl)-6-methyl-2,4(1H,3H)-pyrimidinedione	587.65	
147-71-7	D-Tartaric acid	445.65	
147-73-9	meso-Tartaric acid	420.15	
147-81-9	Arabinose	431.65	
147-82-0	2,4,6-Tribromoaniline	394.15	573.15
147-84-2	Diethyldithiocarbamic acid	416.65	
147-85-3	L-Proline	494.15	
147-90-0	Deposal	383.65	
147-93-3	2-Mercaptobenzoic acid	441.65	
147-94-4	Cytarabine	485.65	
1470-35-5	5-Bromo-2-phenyl-1H-indene-1,3(2H)-dione	439.65	
1470-57-1	2-Hydroxy-5-methylbenzophenone	357.15	
1470-61-7	Silver diethyldithiocarbamate	446.65	
1470-79-7	2,4,4′-Trihydroxybenzophenone	476.85	
1470-94-6	5-Indanol	331.15	526.15
14706-41-3	4-Methyl-N-(phenylsulfonyl)benzenesulfonamide	443.15	
1471-03-0	3-Propoxy-1-propene		364.15
1471-04-1	3-(1,1-Dimethylethoxy)-1-propene		373.15
1471-94-9	N,N′-1,2-Ethanediylbis[3-oxobutanamide]	442.65	
14712-23-3	4-[3-(4-Piperidinyl)propyl]-1-piperidineethanol	345.15	
14716-32-6	1-(2-Hydroxyethyl)-4,6-dimethyl-2(1H)-pyrimidinone	408.15	
14716-89-3	(3-Methylisoxazol-5-yl)methanol	403.15	
1472-87-3	Dimethyl brassylate	309.15	605.05
1472-93-1	Dimethyl octadecanedioate	333.15	
14720-74-2	2,2,4-Trimethylheptane		421.45
14721-76-7	Ethanaminium, N,N,N-trimethyl-2-[[(methylamino)carbonyl]oxy]-, chloride (1:1)	452.15	
14722-38-4	4-Methylcinnoline	346.4	
14725-35-0	2-(Methylthio)-4,5-diphenyloxazole	338.15	
147254-64-6	Ranirestat	465.65	
14727-47-0	trans-Isolongifolanone		398.15
14729-29-4	Roridin A	474.15	
1473-73-0	2-Pyrazinecarboxamide, N-(4-morpholinylmethyl)-, hydrochloride (1:1)	469.15	
14731-78-3	Ethyl 3-(1,3-benzodioxol-5-yl)-2-propenoate	341.15	
14733-22-3	1-[4-[2-(Diethylamino)ethoxy]phenyl]ethanone	504.15	
14733-73-4	5-Bromo-2-benzoxazolinone	488.15	
14733-77-8	5-Amino-2-benzoxazolone	480.15	
14735-72-9	Methyl 2-[[(4-methoxyphenyl)methylene]amino]benzoate	433.65	
14736-30-2	2-Ethylchromone	389.15	
14736-31-3	Ethyl 4-oxo-4H-1-benzopyran-2-carboxylate	344.65	
14737-08-7	5-Chloro-3a,4,7,7a-tetrahydro-1,3-isobenzofurandione	396.65	
14737-80-5	4,5,6,7-Tetrachloro-2-methyl-1H-isoindole-1,3(2H)-dione	484.15	
14737-86-1	4,5,6,7-Tetrachloro-2-hexyl-1H-isoindole-1,3(2H)-dione	422.15	
14737-89-4	trans-3,4-Dimethoxycinnamic acid	453.4	
14737-91-8	cis-2-Methoxycinnamic acid	368.15	
1474-02-8	N-(1-Benzyl-4-piperidyl)-N-phenylpropanamide	348.15	
1474-10-8	(3β)-21-(Acetyloxy)-3,17-dihydroxypregn-5-en-20-one	488.65	
1474-53-9	Estriol 3-methyl ether	428.65	
1474-68-6	(5β)pregnane-3,11,20-trione	427.15	
147403-65-4	Methyl 2-ethoxy-1-[[2′-(hydroxyamidino)biphenyl-4-yl]methyl]-1H-benzimidazole-7-carboxylate	481.15	
147444-03-9	Pyripyropene A	425.65	
14745-36-9	α-Tocopherol hydroquinone	333.6	
1475-12-3	2,5-Dichloro-α-methylbenzenemethanol	334.15	
14752-75-1	Heptadecylbenzene	305.15	670.15
14753-08-3	2,5-Dimethoxy-p-cymene	521.15	517.15
14755-02-3	trans-3-Hydroxycinnamic acid	471.15	
14756-00-4	3,4-Methylenedioxycinnamaldehyde	357.65	
14759-06-9	Sulforidazine	395.15	
1476-11-5	cis-1,4-Dichloro-2-butene	225.15	425.65
1476-23-9	Allyl isocyanate		361.15
1476-33-1	3-[2-(Dimethylamino)ethyl]-1H-indol-6-ol	438.65	
1476-39-7	1,5-Diaminopentane dihydrochloride	528.15	
1476-52-4	(±)-Desethylchloroquine	374.15	
1476-98-8	Hydroquinidine hydrochloride	546.65	
14760-53-3	7,12-Dimethylbenz[a]anthracen-4-ol	432.15	
14760-99-7	N1,N2-Dimethyl-N1,N2-dinitroethanediamide	296.65	
14762-38-0	N1-(2-Nitro-1-phenylpropyl)-1,2-ethanediamine	346.15	
14762-55-1	Helium-3		3.2
14763-20-3	(3-Chlorophenyl)hydrazine	516.15	
14763-24-7	(2,6-Dichlorophenyl)hydrazine	374.15	
14763-60-1	4-(Methylsulfonyl)phenol	366.65	
14763-61-2	3-(Methylsulfonyl)phenol	357.65	
14763-64-5	4-(Methylsulfinyl)phenol	363.65	
14769-73-4	Levamisole	333.9	
1477-19-6	Benzarone	397.45	
1477-20-9	Acetamide, N,N′-[1,4-phenylenebis(methylene)]bis[2,2-dichloro-N-ethyl-	373.25	
1477-24-3	5-(Pyridin-4-yl)-4H-[1,2,4]triazole-3-thiol	594.65	
1477-39-0	Noracymethadol	502.65	
1477-42-5	2-Amino-4-methylbenzothiazole	411.15	
1477-44-7	Methyl glycyrrhetinate	532.65	
1477-49-2	Indole-3-glyoxylic acid	483.15	
1477-50-5	Indole-2-carboxylic acid	479.65	
1477-55-0	m-Xylylenediamine	287.25	520.15
1477-57-2	N,N′-1,8-Octanediylbis[2,2-dichloroacetamide]	396.15	
1477-63-0	3-Hydroxy-α-[(methylamino)methyl]benzenemethanol	390.65	
1477-68-5	3-O-Methyldopamine hydrochloride	486.65	
14770-86-6	N-(5-Phenyl-2-thienyl)acetamide	451.65	
14770-96-8	2-Hydroxy-5-methoxybenzophenone	357.9	
14772-99-7	Methyl (5β,7α,12α)-7,12-dihydroxy-3-oxocholan-24-oate	443.15	
14773-40-1	3-(3,4-Dimethoxyphenyl)-2-propenamide	439.65	
14777-25-4	Perazine dimalonate	389.65	
14777-27-6	Ethanimidic acid, methyl ester, hydrochloride (1:1)	368.4	
147770-06-7	Ethyl 2-ethoxy-4-[2-[[(1S)-3-methyl-1-[2-(1-piperidinyl)phenyl]butyl]amino]-2-oxoethyl]benzoate	396.15	
14779-16-9	3-Methyl-2(3H)-benzothiazolimine	396.15	
14779-17-0	5-Methyl-2-benzothiazolamine	456.15	
1478-61-1	Bisphenol AF	434.15	
1478-62-2	2,2-Dimethylpropanoyl fluoride	341.15	337.15
14781-45-4	(SP-4-1)-Bis(1,1,1,5,5,5-hexafluoro-2,4-pentanedionato-κO2,κO4)copper	369.65	
14783-09-6	(T-4)-Dichloro(1,10-phenanthroline-κN1,κN10)copper	568.15	
14786-27-7	Phenylmethyl 4-nitrobenzoate	356.55	
14787-38-3	Ramentaceone	399.15	
1479-58-9	(2-Amino-5-bromophenyl)(2-fluorophenyl)methanone	374.65	
14796-95-3	Strontium palmitate	412.15	
14797-73-0	Perchlorate	535.65	
14799-82-7	Phosphonium, (cyclopropylmethyl)triphenyl-, bromide (1:1)	449.15	
14799-94-1	Dichlorohexylmethylsilane		478.15
148-01-6	Dinitolmide	454.15	
148-03-8	β-Tocopherol		478.15
148-18-5	Sodium diethyldithiocarbamate	368.15	
148-24-3	8-Hydroxyquinoline	347.15	540.15
148-51-6	3-Pyridinemethanol, 5-hydroxy-4,6-dimethyl-, hydrochloride (1:1)	527.15	
148-53-8	o-Vanillin	317.65	538.65
148-56-1	Flumethiazide	579.75	
148-61-8	Ethylmercurithiosalicylic acid	383.15	
148-64-1	1,2-Ethanediamine, N1-[(5-chloro-2-thienyl)methyl]-N2,N2-dimethyl-N1-2-pyridinyl-, 2-hydroxy-1,2,3-propanetricarboxylate (1:1)	387.15	
148-72-1	Pilocarpine nitrate	451.15	
148-78-7	4-[[[4-[Bis(2-chloroethyl)amino]phenoxy]carbonyl]amino]benzoic acid	480.15	
148-79-8	Thiabendazole	577.65	
148-82-3	Melphalan	455.65	
148-86-7	[1,1′-Biphenyl]-4-ol, 4-acetate	362.15	
148-97-0	Nitrosophenylhydroxylamine	331.65	
1480-19-9	Fluanisone	341.15	
1480-96-2	5-Fluoro-2-methoxy-4(3H)-pyrimidinone	479.65	
14802-41-6	2-[(1E)-2-(4-Pyridinyl)ethenyl]pyridine	348.65	
14804-01-4	5,5′-Dithiobis[1H-1,2,4-triazole]	454.15	
14804-31-0	4-Bromo-2-methylanisole	341.15	
14804-39-8	2-Methoxy-1,3-dimethyl-5-nitrobenzene	365.15	
14805-54-0	N1,N2-Bis(2,4-dinitrophenyl)ethanediamide	579.15	
14806-50-9	3,3′-Diethyloxadicarbocyanine iodide	505.15	
14806-72-5	Triethanolamine acetate	200.85	
14807-75-1	Thioperoxydicarbonimidic diamide ([(H2N)C(NH)]2S2), hydrochloride (1:2)	446.65	
14807-96-6	Talc (Mg3H2(SiO3)4)	1223.15	
14808-60-7	Quartz (SiO2)	1883.15	2503.15
1481-27-2	1-(4-Fluoro-2-hydroxyphenyl)ethanone	297.15	
1481-41-0	3,3,3-Trifluoropropyldimethylchlorosilane		391.15
1481-93-2	4-Chromanol	314.65	
14811-92-8	3-Stearoyl-sn-glycerol	345.65	
14812-03-4	trans-2-Nonenoic acid	273.45	
14813-29-7	3,5,7-Tris(acetyloxy)-2-[3,4,5-tris(acetyloxy)phenyl]-4H-1-benzopyran-4-one	485.15	
14813-85-5	1,3-Dihydro-1-phenyl-2H-benzimidazol-2-one	474.65	
14814-09-6	(3-Mercaptopropyl)triethoxysilane		483.15
14815-86-2	4-(Trichloromethyl)benzoyl chloride	301.15	
14815-87-3	Benzoic acid, 4-(trichloromethyl)-, methyl ester	322.65	
14816-18-3	Phoxim	279.25	375.15
14816-67-2	Methanesulfonamide, N-[2-hydroxy-5-[1-hydroxy-2-[(1-methylethyl)amino]ethyl]phenyl]-, hydrochloride (1:1)	469.15	
14817-09-5	4-(Decyloxy)-3,5-dimethoxybenzamide	394.65	
1482-50-4	Dihydrocortisol	468.15	
1482-62-8	N-(4-Chlorophenyl)-N′-cyanoguanidine	476.15	
1482-78-6	Etiocholanolone acetate	367.65	
14825-85-5	9,10-Dihydro-9,10-bis(2-phenylethynyl)-9,10-anthracenediol	458.65	
14825-93-5	2-Methyl-N-(2,2,2-trichloro-1-hydroxyethyl)-2-propenamide	409.65	
1483-07-4	Albizziin	487.65	
1483-20-1	5-Methoxy-1,3-benzoxathiol-2-one	346.9	
1483-54-1	2-Amino-4-(trifluoromethyl)benzonitrile	360.65	
1483-67-6	2-Heptynoic acid	337.15	
1483-72-3	Diphenyliodonium chloride	501.65	
1483-73-4	Iodonium, diphenyl-, bromide (1:1)	481.15	
14838-15-4	(±)-Phenylpropanolamine	374.4	
1484-08-8	N-Butylcarbazole	331.15	
1484-09-9	N-Isopropylcarbazole	395.15	
1484-10-2	N-Propylcarbazole	323.15	
1484-12-4	N-Methylcarbazole	362.49	470.15
1484-13-5	N-Vinylcarbazole	339.15	448.15
1484-26-0	3-(Benzyloxy)aniline	334.9	
1484-50-0	2-Bromo-1,2-diphenylethanone	336.15	
1484-80-6	2-Ethylpiperidine		403.15
1484-84-0	2-Piperidineethanol	342.15	475.15
1484-85-1	1,3-Benzodioxole-5-ethanamine	387.15	
1484-88-4	Pyrylium, 2,4,6-triphenyl-, perchlorate (1:1)	562.15	
14845-06-8	4-Ethyl-1,2-diphenyl-3,5-pyrazolidinedione	381.15	
14847-51-9	2-Bromo-5-methylphenol	335.15	
14848-01-2	4-Azidobenzoyl chloride	331.15	
1485-00-3	5-(2-Nitroethenyl)-1,3-benzodioxole	435.65	
1485-07-0	2-Naphthaleneethanol	340.15	
1485-15-0	Benzenemethanol, α-[(1S)-1-aminoethyl]-, hydrochloride (1:1), (αS)-rel-	440.15	
1485-70-7	N-Benzylbenzamide	378.15	378.15
1485-92-3	1,3,3-Trimethylindolinobenzospiropyran	365.15	
14850-22-7	(3Z)-3-Octene	147.15	396.05
14850-23-8	trans-4-Octene	179.35	395.45
14852-31-4	2-Hexadecanol	317.15	587.15
148553-50-8	Pregabalin	468.15	
14857-34-2	Ethoxydimethylsilane		327.65
14858-73-2	Di(2-ethylhexyl) carbonate		480.85
1486-28-8	Methyldiphenylphosphine	390.65	557.15
1486-39-1	Phosphorotrithioic acid, S,S,S-triethyl ester	249.65	
1486-51-7	4-(Benzyloxy)benzoic acid	460.15	
1486-70-0	3-O-Methylquercetin	548.15	
14860-49-2	Clobutinol		452.65
14860-64-1	4-Azidoaniline	338.65	
14860-89-0	α,α-Dimethyl-3-(1-methylethyl)benzenemethanol	309.65	
14861-16-6	2-Phenylethyl β-D-galactopyranoside	370.65	
14865-38-4	Benzenemethanamine, 2-methyl-, hydrochloride (1:1)	463.15	
14866-33-2	Tetraoctylammonium bromide	371.15	
14866-43-4	Phosphonium, hexadecyltriphenyl-, bromide (1:1)	374.15	
14868-03-2	1,1-Dichloro-2,2-bis(4-hydroxyphenyl)ethylene	483.15	
1487-15-6	2,3-Dihydro-5-methylfuran		354.65
1487-49-6	Methyl 3-hydroxybutyrate	448.15	
1487-55-4	1,1′-[1-(3-Hydroxy-7-methyl-3-oxido-2,4-dioxa-7-aza-3-phosphaoct-1-yl)-1,2-ethanediyl] dihexadecanoate	411.15	
148700-85-0	(2S,3S)-3-[[3,5-Bis(trifluoromethyl)phenyl]methoxy]-2-phenylpiperidine	487.15	
14871-98-8	(T-4)-Difluoro(1-phenyl-1,3-butanedionato-κO1,κO3)boron	428.65	
1488-42-2	Iodonium, (2-carboxyphenyl)phenyl-, inner salt	502.65	
14885-29-1	Ipronidazole	333.15	
1489-56-1	1-Methyl-1,3-cyclohexadiene		375.65
1489-57-2	2-Methyl-1,3-cyclohexadiene	366.65	380.65
1489-60-7	1-Methylcyclobutene	331.15	
1489-69-6	Cyclopropanecarboxaldehyde		372.65
14892-14-9	2-(2,3,4,5,6-Pentafluorophenoxy)acetic acid	382.15	
14897-78-0	4-Hydroxy-3,5-dimethoxybenzenepropanoic acid	375.65	
14898-79-4	(-)-2-Butanol		372.4
14899-36-6	Dexamethasone palmitate	335.65	
149-11-1	Copper(II) 2-ethylhexanoate	525.15	
149-13-3	Benzoic acid, 4-amino-, 2-(diethylamino)ethyl ester, compd. with boric acid (HBO2) (1:5)	428.15	
149-15-5	1-Propanol, 3-(dibutylamino)-, 1-(4-aminobenzoate), sulfate (2:1)	412.15	
149-16-6	Butacaine		453.15
149-17-7	Ftivazide	492.65	
149-29-1	Patulin	384.15	
149-30-4	2-Mercaptobenzothiazole	454.1	
149-31-5	2-Methyl-1,3-pentanediol		487.65
149-32-6	Erythritol	394.65	603.65
149-44-0	Rongalite	336.65	
149-57-5	2-Ethylhexanoic acid	214.15	501.15
149-64-4	Buscopan	416.15	
149-73-5	Trimethyl orthoformate	288.15	373.75
149-74-6	Dichloromethylphenylsilane	220.15	479.65
149-87-1	DL-Pyrrolidonecarboxylic acid	455.15	
149-91-7	Gallic acid	483.15	
149-95-1	(+)-Norepinephrine	490.15	
1490-04-6	Menthol	264.15	
1490-25-1	Methyl succinyl chloride	448.15	
14901-07-6	4-(2,6,6-Trimethyl-1-cyclohexen-1-yl)-3-buten-2-one		400.15
14901-08-7	[(1Z)-2-Methyl-2-oxidodiazenyl]methyl β-D-glucopyranoside	417.65	
14901-16-7	1-Phenyl-3-(2-thiazolyl)-2-thiourea	402.15	
14906-55-9	Pyridine, 4-ethyl-, 1-oxide	383.15	
14906-56-0	N-(1-Oxido-4-pyridinyl)acetamide	533.65	
14906-59-3	4-Pyridinecarbonitrile, 1-oxide	497.15	
14906-64-0	3-Pyridinecarbonitrile, 1-oxide	448.65	
149082-03-1	3,5-Dimethyl-4-nitro-2-pyridinemethanol	338.75	
1491-41-4	Naftalofos	450.15	
1491-59-4	Oxymetazoline	455.15	
149118-66-1	Benzo[b]thiophene-2-carboxamide, N-cyclohexyl-, 1,1-dioxide	470.25	
14913-80-5	Scheelite	1273.15	
14914-99-9	Cholesteryl dihydrocinnamate	372.65	
14916-80-4	3-Octyn-1-ol		370.15
14917-55-6	Methyl α-L-rhamnopyranoside	381.65	
14918-80-0	4-(Acetyloxy)-2-methyl-2-butenal	325.65	
14919-01-8	trans-3-Octene	163.15	396.45
14919-77-8	Benserazide hydrochloride	420.15	
1492-02-0	Glybuzole	436.15	
1492-24-6	(+)-α-Aminobutyric acid	548.15	
1492-30-4	p-Nitrophenyl palmitate	336.15	
14920-93-5	1,1,3-Trimethyl-1,3,3-triphenyldisiloxane	228.15	
14923-17-2	Guanidine, N,N′′′-1,4-butanediylbis-, sulfate (1:1)	518.15	
14923-84-3	1,6-Diaminopyrene	505.65	
14924-53-9	Ethyl cyclobutanecarboxylate		432.15
14929-11-4	Simfibrate	325.15	498.15
1493-02-3	Formyl fluoride	130.95	246.65
1493-13-6	Trifluoromethanesulfonic acid		439.15
1493-15-8	Methanethiol, trifluoro-		236.45
1493-27-2	1-Fluoro-2-nitrobenzene	267.15	
1493-51-2	1,3-Bis(4-fluorophenyl)-1,3-propanedione	382.15	
14930-96-2	Cytochalasin B	492.65	
14931-40-9	(T-4)-(Hydrazine-κN1)trihydroboron	333.15	
14933-08-5	N-Dodecyl-N,N-dimethyl-3-ammonio-1-propanesulfonate	574.15	
14933-33-6	1H-Imidazolium, 3-(carboxymethyl)-4,5-dihydro-1-(2-hydroxyethyl)-2-undecyl-, inner salt	447.15	
14933-78-9	4-Nitropicolinic acid N-oxide	421.15	
14934-37-3	Benzoxazolium, 3-ethyl-2-[3-(3-ethyl-2(3H)-benzoxazolylidene)-2-methyl-1-propen-1-yl]-, iodide (1:1)	547.15	
14937-39-4	N,N,N′,N′,P-Pentamethylphosphonous diamide	221.15	
14938-35-3	4-Pentylphenol	296.15	523.65
14938-70-6	2-[(2-Hydroxyphenyl)methylene]-N-phenylhydrazinecarbothioamide	478.15	
1494-85-5	4-Amino-N-(4-fluorophenyl)benzenesulfonamide	436.65	
149409-57-4	4-Methoxy-3-(2-phenylethoxy)-N,N-dipropylbenzeneethanamine hydrochloride (1:1)	372.65	
14941-08-3	Poncirin	483.65	
149437-76-3	4-Fluoro-δ-oxobenzenepentanoic acid	414.65	
14947-53-6	1,2-Bis(1,3-dithian-2-yl)ethane	408.65	
14947-61-6	(T-4)-(1,3-Diphenyl-1,3-propanedionato-κO1,κO3)difluoroboron	468.15	
14948-96-0	p-Nitrophenyl-N-acetyl-β-D-galactosaminide	470.15	
1495-50-7	Cyanogen fluoride ((CN)F)	201.15	226.15
14953-63-0	1-Methyl-5-nitro-4-phenyl-1H-imidazole	348.15	
14959-86-5	(Z)-7-Dodecenyl acetate		372.15
1496-02-2	4-Fluorobenzoic acid 2-phenylhydrazide	450.65	
1496-76-0	1H-Indol-1-ylphenylmethanone	340.65	
1496-94-2	Tripropylphosphine oxide	311.15	535.65
14962-28-8	2′,4′,6′-Trichloro-4-biphenylol	403.65	
149647-78-9	Vorinostat	432.9	
14965-49-2	Methanamine, hydriodide	537.15	
14965-52-7	Silane, trichlorofluoro-		285.15
1497-16-1	6-Azaspiro[3.4]octane-5,7-dione	400.15	
1497-17-2	(±)-α-Methyl-α-phenylsuccinimide	337.15	
1497-49-0	Benzenamine, N-[5-(phenylamino)-2,4-pentadien-1-ylidene]-, hydrochloride (1:1)	418.65	
14971-02-9	Silanediol, 1,1′-(1,2-ethanediyl)bis[1-methyl-, 1,1,1′,1′-tetraacetate	342.4	
14971-14-3	Octadecyl 2-hydroxybenzoate	326.15	
149756-73-0	Benzeneethanamine, α-methyl-α-phenyl-, hydrochloride (1:1)	460.15	
14976-57-9	Clemastine fumarate	450.65	
14977-61-8	(T-4)-Dichlorodioxochromium	176.65	390.15
14979-39-6	4-Methyl-3-heptanol	150.15	443.15
1498-40-4	Dichloroethylphosphine		387.65
1498-42-6	Phosphorodichloridous acid, ethyl ester		390.65
1498-51-7	Ethyl phosphorodichloridate	230.65	
1498-56-2	P-1-Piperidinylphosphonic dichloride		530.15
1498-88-0	1′,3′-Dihydro-1′,3′,3′-trimethyl-6-nitrospiro[2H-1-benzopyran-2,2′-[2H]indole]	452.65	
1498-89-1	1′,3′-Dihydro-8-methoxy-1′,3′,3′-trimethyl-6-nitrospiro[2H-1-benzopyran-2,2′-[2H]indole]	440.15	
1498-96-0	4-Butoxybenzoic acid	421.65	
14982-53-7	Cholestane	342.65	
14984-21-5	4,4′-Diphenoxybenzophenone	420.15	
14984-68-0	Cloperastine hydrochloride	421.05	
14984-81-7	Selenonyl fluoride		263.15
149845-06-7	Saquinavir mesylate	514.15	
14986-21-1	Hexachlorodisiloxane	240.15	410.15
14986-57-3	Fluorosulfurous acid, potassium salt	373.15	
14986-95-9	Manganese vanadium oxide (Mn2V2O7)	1093.15	
149877-41-8	Bifenazate	395.15	
1499-10-1	9,10-Diphenylanthracene	519.15	
1499-17-8	1,3,2-Benzodioxaphosphole, 2-chloro-, 2-oxide	331.65	
1499-21-4	Diphenylphosphinic chloride	460.15	
1499-46-3	L-Histidine, methyl ester	521.65	
1499-54-3	N-[2-(Hydroxyamino)-2-oxoethyl]benzamide	431.65	
1499-55-4	5-Methyl hydrogen L-glutamate	446.25	
1499-59-8	Pregnane-3,11,20-trione, 21-(acetyloxy)-17-hydroxy-, (5β)-	502.15	
149950-60-7	Emivirine	383.05	
14996-02-2	Hydrogen sulfate	490.65	
14996-70-4	1,2-Dimethyl-1,2-diphenylhydrazine	306.4	
14996-78-2	2-Phenylcycloheptanone	295.35	
14997-58-1	N-[(Phenylmethoxy)carbonyl]-L-histidine	482.15	
14999-44-1	Glucosamine hydroiodide	459.15	
14999-74-7	Ethanamine, N-ethyl-, perchlorate (1:1)	430.15	
150-05-0	(+)-Epinephrine	487.15	
150-13-0	4-Aminobenzoic acid	461.65	
150-19-6	3-Methoxyphenol		517.15
150-25-4	Bicine	467.15	
150-30-1	DL-Phenylalanine	459.15	
150-39-0	HEDTA	432.15	
150-46-9	Triethyl borate	188.35	393.15
150-50-5	Merphos	373.15	
150-60-7	Dibenzyl disulfide	344.65	
150-61-8	N,N′-Diphenylethylenediamine	347.15	
150-68-5	3-(4-Chlorophenyl)-1,1-dimethylurea	444.15	
150-69-6	(4-Ethoxyphenyl)urea	446.65	
150-75-4	N-Methyl-p-aminophenol	360.15	
150-76-5	4-Methoxyphenol	330.15	516.15