CAS	name	Tm	Tb
116515-49-2	5,6,7,7a-Tetrahydro-7a-hydroxy-3H-pyrrolizin-3-one	367.65	
116529-60-3	2-Bromo-3,5-dinitrobenzoic acid	486.15	
116529-62-5	4-Iodo-2-nitrobenzoic acid	465.15	
116529-66-9	3′-Bromo[1,1′-biphenyl]-2-amine	342.65	
116530-20-2	2,6-Dimethyl-1-naphthalenamine	364.15	
116530-26-8	8-Methyl-2-naphthalenamine	358.65	
116532-18-4	2-[(3-Methyl-2-pyrazinyl)oxy]ethanol	357.65	
116547-93-4	2-Butyl-1-(methylsulfonyl)-1H-indole	352.65	
116548-03-9	1,2-Dihydro-2-oxo-6-(trifluoromethyl)-3-pyridinecarboxamide	494.15	
116548-08-4	1,2-Dihydro-4-methyl-2-oxo-6-(trifluoromethyl)-3-pyridinecarbonitrile	484.65	
116568-95-7	4-Thiazolepropanoic acid, 2-amino-, methyl ester, hydrobromide (1:1)	464.65	
1165931-64-5	1,1-Dimethylethyl N-[2-(5-methyl-1,2,4-oxadiazol-3-yl)ethyl]carbamate	340.5	
1165931-71-4	5-[(4-Bromophenyl)methyl]-3-cyclopropyl-1,2,4-oxadiazole	340.95	
116599-56-5	5,6-Dimethyl-3H-imidazo[4,5-b]pyridine	494.15	
1166-47-8	cis-Tetramethrin	403.15	
116632-20-3	5-Amino-2,4-dinitrophenol	504.15	
116632-24-7	4,6-Dichloro-2-pyridinamine	385.65	
116632-43-0	1-Chloro-3-iodo-5-methylbenzene	273.15	
116632-54-3	2-Chloro-3-quinolinamine	441.15	
116632-55-4	6-Nitro-4-quinolinamine	584.65	
116632-63-4	2,3-Dimethyl-8-quinolinamine	378.65	
116664-93-8	7H-Naphtho[1,2,3-ij][2,7]naphthyridin-7-one	494.15	
1167-48-2	(3β)-3,17,21-Trihydroxypregn-5-en-20-one	514.15	
116734-22-6	2-(4-Methoxyphenyl)-6-methyl-4-quinolinecarboxylic acid	503.65	
116734-78-2	3-Nitro-9-octyl-9H-carbazole	361.65	
116757-66-5	2,3-Dihydro-7-methoxy-1,4-benzodioxin-6-carboxaldehyde	403.65	
116757-85-8	α-(Trifluoromethyl)-1H-indole-3-methanol	382.65	
116799-24-7	Carbamic acid, (3-cyano-4-pyridinyl)-, 1,1-dimethylethyl ester	401.15	
116855-01-7	1-Methyl-3-nitro-1H-pyrazolo[3,4-b]pyridine	394.65	
116857-07-9	9H-Fluoren-9-ylmethyl N-[(3S)-tetrahydro-2-oxo-3-furanyl]carbamate	481.65	
116857-95-5	5-Chloro-1H-indazole-1-propanamide	412.15	
116884-64-1	5-Amino-1-(4-methoxyphenyl)-1H-pyrazole-4-carbonitrile	402.65	
1169-54-6	Estra-1,3,5(10),9(11)-tetraene-3,17-diol, diacetate, (17β)-	421.65	
116941-52-7	4-Bromo-5′-phenyl-1,1′:3′,1′′-terphenyl	423.9	
117-17-9	2-Ethoxy-1-nitronaphthalene	377.65	
117-30-6	2-(1-Piperidinyl)ethyl α-phenyl-1-piperidineacetate		462.15
117-81-7	Dioctyl phthalate	218.15	
117007-51-9	3-Chloro-1H-pyrazolo[3,4-b]pyridine	448.65	
117016-15-6	Methyl (1R,2R,4S)-4-[(3-amino-2,3,6-trideoxy-α-L-lyxo-hexopyranosyl)oxy]-2-ethyl-1,2,3,4,6,11-hexahydro-2,5,7,10,12-pentahydroxy-6,11-dioxo-1-naphthacenecarboxylate	452.15	
1170362-13-6	N-(2-Chlorophenyl)-3,5-dimethyl-1H-pyrazole-1-acetamide	394.15	
117048-59-6	Combretastatin A4	389.65	
117067-49-9	N-[1H-Benzotriazol-1-yl(4-methylphenyl)methyl]acetamide	460.65	
117068-64-1	3-Hydroxybutyric acid-4-hydroxybutyric acid copolymer	386.08	
1171-49-9	Phenyl(triphenylsilyl)methanone	376.15	
117106-20-4	O-(1,1-Dimethylethyl)-N-[(9H-fluoren-9-ylmethoxy)carbonyl]-N-methyl-L-threonine	318.15	
117106-22-6	(2S)-2-Amino-4-[[(9H-fluoren-9-ylmethoxy)carbonyl]amino]butanoic acid	439.15	
117135-92-9	2-(1,1-Dimethylethyl)-2,3-dihydro-1H-isoindole	302.65	
117175-42-5	2-Pyrrolidinecarbothioamide, monohydrochloride, (R)-	448.65	
117279-73-9	Israpafant	403.65	
117286-92-7	(4R)-1-[Bis(1-methylethoxy)phosphinyl]-4-hydroxy-L-proline	367.65	
117291-26-6	β-[(2,2,2-Trifluoroacetyl)amino]benzenepropanoyl chloride	334.15	
1173-27-9	11-Dehydrocorticosterone acetate	449.65	
1173020-25-1	5,6,7,8-Tetrahydro-2,3-naphthalenedimethanol	389.15	
117309-39-4	N-(2-Chlorophenyl)-N-(phenylsulfonyl)glycine	415.65	
117309-42-9	N-(4-Fluorophenyl)-N-(phenylsulfonyl)glycine	419.15	
117309-48-5	Benzeneacetic acid, α-[[(4-fluorophenyl)sulfonyl]amino]-, (R)-	431.15	
1173150-11-2	6-(2,2,2-Trifluoroethoxy)-3-pyridazinamine	374.15	
1173188-31-2	Methyl 4,9-dimethoxy-6-oxo-10-(2-propen-1-yloxy)-6H-dibenzo[b,d]pyran-1-carboxylate	434.65	
117320-67-9	3-(3-Chlorophenyl)-6-(4-chlorophenyl)-7H-1,2,4-triazolo[3,4-b][1,3,4]thiadiazine	454.65	
117324-06-8	Benzoic acid, 2-amino-4-fluoro-, ethyl ester, hydrochloride (1:1)	427.65	
117332-47-5	3,4-Dichloro-1H-pyrrolo[3,2-c]pyridine	508.15	
117341-58-9	5,6-Dihydro-6-methoxy-5-methylene-3-phenyl-4H-1,2-oxazine	336.65	
117356-37-3	1,2,3,4-Tetrahydro-7-hydroxy-2-naphthaleneacetic acid	420.15	
117372-50-6	4-Chloro-7-methoxyfuro[2,3-b]quinoline	442.15	
1173721-46-4	5-Bromo-1-ethyl-1H-pyrrolo[2,3-b]pyridine-2,3-dione	415.65	
117377-38-5	3-Amino-5-(ethylamino)-4-isothiazolecarbonitrile	477.15	
117390-08-6	Methyl 4-[(1E)-3-hydroxy-1-propen-1-yl]benzoate	349.15	
117390-34-8	5-Chlorothieno[3,2-b]pyridine-6-methanol	406.65	
117390-41-7	Thieno[3,2-b]pyridine-6-carboxamide	498.15	
117391-24-9	N-(6-Bromo-2,3-dihydro-3-oxo-1H-inden-1-yl)-2,2,2-trifluoroacetamide	471.15	
117391-51-2	β-Amino-3-fluorobenzenepropanoic acid	511.15	
117402-89-8	3,4-Dichloro-N-[(phenylmethoxy)carbonyl]-D-phenylalanine	397.15	
117420-82-3	5-[(4-Methylphenyl)sulfonyl]-2-(methylthio)-4-thiazolamine	413.15	
117423-75-3	3-(4-Methoxyphenoxy)benzoic acid	415.15	
117449-74-8	2,5-Dichloro-6-methyl-3-pyridinecarboxylic acid	403.65	
117449-75-9	5-Chloro-1,2-dihydro-6-methyl-2-oxo-3-pyridinecarboxylic acid	565.65	
1174517-49-7	2,3-Dichloro-5-iodo-6-(methylthio)pyrazine	369.55	
1174652-31-3	2,4-Bis(trifluoromethyl)-7H-pyrrolo[2,3-d]pyrimidine	509.15	
117504-27-5	1-(3,5-Dimethyl-4-isoxazolyl)-2-butanone	308.65	
117523-47-4	Mirfentanil	479.65	
117527-50-1	Paclitaxel succinate	451.65	
117552-77-9	Butanoic acid, 3-[[3-(formylamino)-2-hydroxybenzoyl]amino]-8-hexyl-2,6-dimethyl-4,9-dioxo-1,5-dioxonan-7-yl ester, [2R-(2R*,3S*,6S*,7R*,8R*)]-	416.8	
117561-95-2	N-(2-Chlorophenyl)-2-nitrobenzenesulfonamide	420.65	
1175675-60-1	6-Bromo-4-chloro-9H-pyrido[2,3-b]indole	477.15	
117572-80-2	1,3,4-Tribromo-2,5-dimethylbenzene		362.15
1176-52-9	Gramisterol	439.15	
1176-88-1	5-Hydroxy-3,6,7,8,3′,4′-hexamethoxyflavone	395.65	
117611-63-9	Somniferine	459.15	
117623-52-6	5-(Chloromethyl)-2-imino-N-phenyl-3-oxazolidinecarboxamide	444.65	
117671-03-1	Methyl 2-fluoro-6-methoxy-3-pyridinecarboxylate	354.65	
1177-16-8	Ethanedial, 1,2-bis[2-(2,4-dinitrophenyl)hydrazone]	597.15	
1177-96-4	Cholest-5-ene, 3β-ethoxy-3-methyl-	397.65	
117704-25-3	Doramectin	390.65	
117755-96-1	Butanoic acid, 2-[(4-methylphenyl)amino]-	431.15	
1177790-89-4	N-[4-(Methylthio)phenyl]-4-morpholinecarboxamide	354.15	
117784-27-7	4-(4-Pyridinyl)-1H-pyrazole-3-carboxylic acid	528.65	
1178-60-5	Pregna-3,5-dien-20-one, 17-(acetyloxy)-3-(cyclopentyloxy)-	410.65	
117824-54-1	2,6-Dibromo-4-methyl-3-nitrobenzenamine	354.65	
117832-10-7	2,4-Diiodo-5-methylbenzenamine	346.65	
117832-11-8	4-Iodo-2,3-dimethylbenzenamine	329.15	
117832-16-3	2,4-Diiodo-3,5-dimethylbenzenamine	368.65	
117832-18-5	2,4-Diiodo-5-methoxybenzenamine	393.65	
117845-84-8	Benzenecarbothioic acid, S-(2-sulfoethyl) ester, sodium salt (1:1)	591.7	
117846-57-8	2,3-Dibromo-4,5-dimethylpyridine	306.15	
117846-58-9	2,6-Dibromo-3,5-dimethylpyridine	380.65	
117857-93-9	(αS,1S,2S)-α-Amino-2-carboxycyclopropaneacetic acid	517.15	
117857-96-2	(αS,1R,2S)-α-Amino-2-carboxycyclopropaneacetic acid	454.15	
117860-54-5	3-Amino-1-methyl-1H-pyrazole-5-carboxylic acid	514.15	
117860-55-6	3-Methyl 1-methyl-1H-pyrazole-3,5-dicarboxylate	402.9	
117860-56-7	5-Methyl 1-methyl-1H-pyrazole-3,5-dicarboxylate	445.4	
117861-55-9	3-Methyl-2-buten-1-yl β-D-glucopyranoside	352.65	
117873-73-1	2,4-Dibromo-6-methoxypyridine	365.15	
117873-74-2	6,6′-Dibromo-4,4′-dimethoxy-2,2′-bipyridine	480.65	
1179-34-6	2-[2-(2,4-Dinitrophenyl)hydrazinylidene]butanal 2-(2,4-dinitrophenyl)hydrazone	520.9	
117918-57-7	1-(3-Thienylcarbonyl)-L-proline	390.15	
117929-06-3	Dimethylarsinoylacetic acid	387.15	
1179374-63-0	3,7-Dihydroxy-1,9-dimethyl-8-(3-methyl-1-oxo-2-buten-1-yl)-11-oxo-11H-dibenzo[b,e][1,4]dioxepin-4-carboxaldehyde	452.65	
1179374-64-1	3-Hydroxy-7-methoxy-1,9-dimethyl-8-(3-methyl-1-oxo-2-buten-1-yl)-11-oxo-11H-dibenzo[b,e][1,4]dioxepin-4-carboxaldehyde	490.15	
1179374-66-3	9-Chloro-3,4-dihydro-10-hydroxy-2,2,5,8-tetramethyl-4,7-dioxo-2H,7H-1-benzopyrano[7,6-b][1,4]benzodioxepin-11-carboxaldehyde	521.65	
1179374-69-6	3,4-Dihydro-8,13-dihydroxy-2,2,5,10-tetramethyl-4,11-dioxo-2H,11H-1-benzopyrano[6,7-b][1,4]benzodioxepin-7-carboxaldehyde	525.15	
117969-89-8	2,2′-Bithiophene, 3,5,5′-tribromo-	357.15	
117976-90-6	Rabeprazole sodium	413.65	
117977-21-6	Rabeprazole-thioether	384.65	
1180-46-7	5,6,7-Tris(acetyloxy)-2-[4-(acetyloxy)phenyl]-4H-1-benzopyran-4-one	509.15	
1180-88-7	Lanost-9(11)-en-3-ol, acetate, (3β)-	436.65	
118000-48-9	4-Imidazo[1,2-a]pyridin-2-ylbenzaldehyde	481.65	
118000-49-0	4-Imidazo[1,2-a]pyridin-2-ylbenzamide	533.15	
118001-68-6	4-Imidazo[2,1-b]thiazol-6-ylbenzaldehyde	442.15	
118001-72-2	4-(3-Pyridinylmethoxy)benzaldehyde	350.15	
118001-74-4	4-(4-Thiazolylmethoxy)benzaldehyde	358.15	
118024-26-3	Blumeatin	492.15	
118026-14-5	α-Hydroxy-N,N,6-trimethyl-2-(4-methylphenyl)imidazo[1,2-a]pyridine-3-acetamide	449.15	
118031-69-9	2,4-Dihydro-2-(4-methoxyphenyl)-5-propyl-3H-pyrazol-3-one	373.95	
118054-57-2	1H-Pyrazole-3-acetic acid, hydrochloride (1:1)	411.65	
118058-74-5	5-O-Desosaminyl-6-O-methylerythronolide A	432.15	
118063-79-9	Orthosporin	456.65	
118111-54-9	Cyprodime	430.15	
118128-77-1	1,2,3,4-Tetrahydro-8-methyl-5-quinolinecarboxylic acid	404.15	
118143-01-4	Trichothec-9-ene-3,4,8,15-tetrol, 12,13-epoxy-, 4,15-diacetate 8-hexanoate, (3α,4β,8α)-	419.65	
118169-17-8	3,7-Dihydroxy-2,4,8-trimethoxyphenanthrene	422.65	
118194-13-1	Soyasaponin Ab	527.65	
118263-97-1	1-Methyl-2,4-piperidinedione	442.15	
118288-39-4	2,3,4,5-Tetrahydro-5-oxo-1-benzothiepin-4-acetic acid	445.15	
118288-67-8	[1]Benzothiepino[5,4-c]pyridazin-3(2H)-one, 2-(4-chlorophenyl)-5,6-dihydro-, 7-oxide	506.65	
1183-06-8	Benzaldehyde, p-[bis(2-chloroethyl)amino]-, (6-methyl-2,4-pyrimidinediyl)dihydrazone, monohydrochloride	463.15	
1183-64-8	Picras-3-ene-11,16-dione, 1,2,12,15,20-pentakis(acetyloxy)-, (1β,2α,12α,15β)-	473.15	
118307-04-3	5-(2-Chloroacetyl)-6-chlorooxindole	479.65	
118307-05-4	5-(2-Chloroacetyl)-6-fluoro-1,3-dihydro-3,3-dimethyl-2H-indol-2-one	459.65	
118325-22-7	Licoricesaponin A3	470.65	
118353-04-1	4-Chloro-5-(2,3-dichlorophenoxy)-2-nitrobenzenamine	422.65	
118353-05-2	Carbovir	528.15	
118373-67-4	2-Cyano-3,3-dimercapto-2-propenamide	416.15	
118396-02-4	Australine	421.65	
1184-20-9	Methyl (3α,5β,6α)-3,6-bis[[(4-methylphenyl)sulfonyl]oxy]cholan-24-oate	439.65	
1184-49-2	1,1,2,2,3,3,4,4,5,5,6,6-Dodecaphenylhexasilane	420.65	
1184-77-6	Germane, diiododimethyl-		477.15
118409-57-7	Tyrphostin 23	498.15	
118409-63-5	2-[Hydroxy(4-hydroxyphenyl)methylene]propanedinitrile	468.15	
118419-97-9	2-Propenoic acid, 3-(5-chloro-3-pyridinyl)-, (E)-	469.15	
118419-98-0	2-Propenoic acid, 3-(5-bromo-3-pyridinyl)-, (E)-	481.65	
118441-84-2	Licoricesaponin G2	502.65	
118441-85-3	Licoricesaponin H2	482.65	
118488-09-8	2-(2,5-Dimethyl-3-thienyl)-1-(4-morpholinyl)ethanethione	349.65	
118488-74-7	Methyl β-hydroxy-α-methylene-2-pyridinepropanoate	323.65	
1185-31-5	3,3′,4,4′-Tetradehydro-1,1′-dimethoxy-ψ,ψ-carotene-2,2′(1H,1′H)-dione	489.15	
118511-98-1	6-Chloro-1H-indazole-3-propanamine	521.15	
118525-40-9	Icaritin	512.4	
1185256-03-4	1-[[(Cyclohexyloxy)carbonyl]oxy]ethyl 3-[[2′-(2-ethyl-2H-tetrazol-5-yl)[1,1′-biphenyl]-4-yl]methyl]-2,3-dihydro-2-oxo-1H-benzimidazole-4-carboxylate	447.65	
118584-19-3	7-[[(2E,6R)-6-Hydroxy-3,7-dimethyl-2,7-octadien-1-yl]oxy]-2H-1-benzopyran-2-one	346.65	
118605-21-3	Glyceryl 1-tetracosanoate	339.65	
118612-00-3	Dimethylanilinium tetrakis(pentafluorophenyl)borate	499.15	
118630-19-6	5-(4-Phenyl-1-piperazinyl)-1H-1,2,4-triazol-3-amine	490.15	
118672-28-9	1-Chloro-4-[[[(1E)-2-(4-fluorophenyl)ethenyl]sulfonyl]methyl]benzene	434.65	
118672-71-2	7-Chloro-1,2-dihydro-1-methyl-2-oxo-3-quinolinecarboxaldehyde	503.15	
118684-32-5	1,1-Dimethylethyl N-[3-(bromomethyl)phenyl]carbamate	395.15	
1187-12-8	2-(Diaminomethylene)propanedinitrile	510.15	
1187163-18-3	3-(4-Bromo-2-fluorophenyl)pyridine	324.15	
1187168-53-1	4-(6-Methyl-2-pyridinyl)benzenamine	491.65	
1187169-52-3	(6-Chloro-3-pyridinyl)(2,5-dimethoxyphenyl)methanone	363.15	
118758-48-8	(3R)-3-Phenyl-L-proline	557.65	
118767-92-3	Oxazolo[5,4-b]pyridin-2(1H)-one	520.15	
118779-53-6	2-[(Diphenylmethyl)sulfonyl]acetamide	469.15	
1187931-92-5	3-Quinolinecarboxylic acid, 1,2,3,4-tetrahydro-, hydrochloride (1:1)	508.65	
1188-08-5	2,7-Dimethyloctanedioic acid	406.9	
118824-97-8	1-(4-Hydroxy-2-methoxy-3-methylphenyl)ethanone	404.15	
118829-13-3	1-Bromo-2,4,5-trifluoro-3-(trifluoromethyl)benzene		421.65
1188305-09-0	N3-Ethyl-4-[3-(4-methoxyphenyl)-1,2,4-oxadiazol-5-yl]-1H-pyrazole-3,5-diamine	391.15	
1188338-62-6	Methyl 5-[2-[[(1,1-dimethylethoxy)carbonyl]amino]ethyl]-1-(4-nitrophenyl)-1H-pyrazole-4-carboxylate	394.15	
1189043-17-1	3,3′-Dibromo-2,2′-bipyridine	422.15	
118949-61-4	2,6-Bis[(4S)-4,5-dihydro-4-(1-methylethyl)-2-oxazolyl]pyridine	425.65	
118971-61-2	(E)-3-Methylbut-2-en-1-yl 3-(3,4-dihydroxyphenyl)acrylate	399.15	
118974-02-0	Fumitremorgin C	533.15	
118994-86-8	5-Oxazolecarboxaldehyde	304.15	
119-98-2	Tocol		443.15
1190-55-2	3,7,11-Trimethyldodecanoic acid	420.15	
1190095-08-9	B-[2-Fluoro-5-[[(4-methylphenyl)amino]methyl]phenyl]boronic acid	370.65	
1190095-11-4	B-[4-[[(4-Methylphenyl)amino]methyl]phenyl]boronic acid	362.65	
119011-57-3	7-Chloro-5-methyl-2-(methylthio)thiazolo[4,5-d]pyrimidine	377.15	
1190226-04-0	3,5-Difluoro-2,4,6-pyridinetriamine	483.4	
1190315-94-6	5-(Trifluoromethyl)-1H-pyrrolo[3,2-b]pyridine	452.65	
1190320-08-1	6-Fluoro-4-quinazolinamine	602.15	
1190425-77-4	1-(2-Thienylsulfonyl)-1H-indole	350.15	
119068-77-8	Semduramicin sodium	448.65	
1190948-26-5	Methyl 6-(methylsulfonyl)-3-pyridinecarboxylate	372.65	
1190988-97-6	6-Butyl-2-(3,5-difluorophenyl)tetrahydro-4H-1,3,6,2-dioxazaborocine	386.15	
1190989-09-3	1-Methyl 4-borono-2,6-difluorobenzoate	422.65	
1191-27-1	Hexanoic acid, 6-(dimethylamino)-, hydrochloride (1:1)	377.15	
1191-55-5	2-Propanol, 1-chloro-3-(dodecylamino)-	339.65	
119116-85-7	1,3,6-Trihydroxy-5-methoxy-10-methyl-2-(3-methyl-2-buten-1-yl)-9(10H)-acridinone	521.15	
119126-15-7	Flupoxam	419.15	
119138-37-3	Hydrazinecarboxylic acid, 2-[methoxy(4-methylphenyl)acetyl]-, methyl ester	386.15	
119139-23-0	Arcyriarubin A	434.15	
119160-36-0	3-(1H-Indol-6-yl)-2-propenoic acid	489.15	
119170-52-4	Cassiaside C	509.15	
119171-18-5	1-Methyl-3-propylimidazolium iodide	290.15	
119171-76-5	2-[[5,7-Dihydroxy-2,2-dimethyl-8-(1-oxopropyl)-2H-1-benzopyran-6-yl]methyl]-3,5-dihydroxy-4,4-dimethyl-6-(1-oxopropyl)-2,5-cyclohexadien-1-one	404.15	
119192-09-5	1-(4-Nitrobenzyl)-1H-1,2,4-triazole	373.65	
119192-11-9	4-(1H-1,2,4-Triazol-1-ylmethyl)phenol	399.15	
119193-19-0	3-[(3R,4R)-3,4-Dimethyl-4-piperidinyl]phenol	447.65	
1192-07-0	3-Isoxazolidinone	342.65	
1192-29-6	2-Ethyl-1-pyrroline		401.15
1192217-76-7	Methyl 3-bromo-1-(phenylsulfonyl)-1H-pyrrole-2-carboxylate	350.4	
119240-82-3	Licoflavanone	407.65	
119269-31-7	5′-Guanylic acid, 7-oxide	410.65	
119290-91-4	5-Chloro-1,2,4-benzenetriol	390.15	
1193-03-9	4-Piperidinamine, 1-methyl-, hydrochloride (1:2)	520.15	
1193-23-3	6-Amino-4(3H)-pyrimidinethione	573.15	
1193-26-6	2,3-Dihydro-2-thioxo-4H-1,3-thiazin-4-one	457.15	
1193-71-1	4,6-Dimethyl-3-pyridinamine	341.15	529.15
1193-75-5	3,4,5,6-Tetrahydro-6-imino-3-methyl-2-pyridinamine	427.65	
1193-85-7	4-Ethyl-2-pyrimidinamine	413.65	
1193-87-9	2-(Methylthio)-4H-1,3-thiazin-4-one	327.15	
119302-91-9	Rocuronium bromide	438.15	
119304-97-1	3,4-Dihydro-2H-1-benzopyran-4-acetamide	371.15	
119309-02-3	Atalantoflavone	562.15	
119318-15-9	3β,24-Dihydroxyolean-12-ene	517.15	
1193388-16-7	3-Fluoro-5-nitrobenzenesulfonyl chloride	319.15	
1193390-56-5	3-Fluoro-2-nitrobenzenesulfonyl chloride	324.65	
119386-13-9	4′-Chloro-2,3-dihydroxybiphenyl	383.65	
1194-04-3	Pyridinium, 4-cyano-1-methyl-, iodide (1:1)	464.15	
1194-13-4	3-(2-Thienyl)-2-propyn-1-ol	360.15	
1194-45-2	6-Azaspiro[2.5]octane-5,7-dione	438.15	
1194-67-8	3-Ethyl-2,3-dihydro-2-thioxo-4(1H)-pyrimidinone	450.15	
119403-58-6	Ethyl 3-methyl-5-(1,1,2,2,3,3,4,4,4-nonafluorobutyl)-1H-pyrazole-4-carboxylate	335.15	
1194761-35-7	[N(E)]-N-[(4-Chlorophenyl)methylene]phenylalanine methyl ester	338.3	
1194765-49-5	4-(2-Nitroethyl)thiazole	387.15	
1195-13-7	rel-(3aR,7aR)-Octahydro-2H-indol-2-one	303.15	
1195-20-6	(4S,5R)-5-Methyl-2-oxooxazolidine-4-carboxylic acid	413.15	
1195-33-1	4-Bromobenzenesulfinic acid	387.15	
1195-41-1	3-Methyl-6-(methylamino)-4(3H)-pyrimidinethione	440.65	
1195-43-3	(Dichloromethoxy)benzene	376.15	
1195-46-6	4-(Ethylthio)phenol	314.15	
1195-57-9	N-2-Thiazolylmethanesulfonamide	498.65	
1195-94-4	Piperidinium, 2-carboxy-1,1-dimethyl-, inner salt	480.65	
1195567-61-3	9H-Purin-8-ol, 2-(dimethylamino)-, 8-(hydrogen sulfate)	499.15	
1195596-79-2	6-[2-(Ethylamino)ethyl]-2(1H)-pyrimidinethione	387.65	
1195623-05-2	1-(5-Bromo-2H-indazol-2-yl)ethanone	405.65	
1195650-21-5	Quinoline, 3-chloro-, hydrochloride (1:1)	483.15	
1195687-62-7	1H-Isoindole-1,3(2H)-dione, 2-[2-(1H-pyrazol-4-yl)ethyl]-	442.15	
1195697-23-4	1H-Benzimidazole-2-propanethioic acid	448.65	
119584-72-4	2-(Ethylamino)-6-fluorobenzonitrile	315.65	
119584-74-6	2-Fluoro-6-(2,2,2-trifluoroethoxy)benzonitrile	357.15	
119584-77-9	6-Fluoro-2,4-quinazolinediamine	590.65	
119584-78-0	7-Fluoro-2,4-quinazolinediamine	548.65	
119584-79-1	8-Fluoro-2,4-quinazolinediamine	559.15	
119584-80-4	5-(Methylthio)-2,4-quinazolinediamine	444.15	
1196-38-9	3,4-Dihydroisoquinolin-1(2H)-one	439.15	
1196-80-1	2-Amino-7,9-dihydro-8H-purine-8-thione	623.15	
1196-92-5	Vanillylamine	405.15	
119610-26-3	N-[2-(3-Formyl-2,5-dimethyl-1H-pyrrol-1-yl)ethyl]acetamide	392.65	
119647-70-0	Ethyl 5-acetyl-1H-pyrrole-2-carboxylate	328.65	
119650-45-2	2-Iodo-3-methoxy-5-methylbenzenemethanol	383.15	
1196690-95-5	(βR)-β-Amino-4-ethylbenzenepropanoic acid	493.3	
119686-02-1	1,5,6,7-Tetrahydro-2-(methylthio)-8H-cyclopenta[d][1,2,4]triazolo[1,5-a]pyrimidin-8-one	589.15	
1197-05-3	1-(3-Aminophenyl)-1-propanone	315.15	441.65
1197-13-3	1H-Pyrrole-2-carboxylic acid, 5-formyl-, methyl ester	369.15	
1197-26-8	S-Phenyl methanesulfonothioate	358.9	
1197-49-5	Guanidine, N-(phenylmethyl)-, hydrochloride (1:1)	445.15	
1197-56-4	Ammonium N-(4-chlorophenyl)dithiocarbamate	385.15	
119730-08-4	6-Methyl-2-[[2-(4-methylphenyl)-2-oxoethyl]thio]-4(3H)-pyrimidinone	473.15	
119750-09-3	Ethyl 2-chloro-2-[2-(4-methoxy-2-nitrophenyl)hydrazinylidene]acetate	400.15	
119752-76-0	Brassilexin	414.15	
119754-16-4	2-(4-Ethynylphenoxy)tetrahydro-2H-pyran	341.15	
119767-19-0	β-D-Glucopyranose, 1-[3-[(acetyloxy)methyl]-1-(1,3-benzodioxol-5-yl)-6,7-dimethoxy-2-naphthalenecarboxylate]	401.65	
119770-60-4	[3-[2-(3-Chlorophenyl)ethyl]-2-pyridinyl](1-methyl-4-piperidinyl)methanone hydrochloride	457.15	
119776-17-9	(αS)-α-Methyl-4-(phenylmethoxy)benzenemethanol	339.45	
119793-66-7	Dromos	435.15	
119795-38-9	4-Methyl-5-benzofuranol	353.15	
1198-31-8	3,4-Dihydro-8-methyl-2H-1,3-benzoxazin-2-one	461.65	
1198-34-1	2-Phenylcyclopentanone	399.65	
1198-40-9	4-Amino-7-chloroquinoline	424.4	
1198-56-7	1,2,3,5-Tetrachloro-4,6-difluorobenzene	327.15	
1198-69-2	D-Gluconolactone	407.65	
1198-78-3	2-Bromo-5,7-dimethylpyrazolo[1,5-a]pyrimidine	379.15	
1198-79-4	Pyrazolo[1,5-a]pyrimidin-2-amine, 5,7-dimethyl-, hydrochloride (1:1)	553.15	
119817-92-4	Securinan-11-one, 14,15-dihydro-15-hydroxy-, (2α,15β)-	430.65	
119824-66-7	N-(2-Phenoxyacetyl)guanosine	432.65	
119825-08-0	2-Amino-4-phenyl-4H-pyrano[3,2-h]quinoline-3-carbonitrile	543.15	
119836-09-8	1-(4-Methylphenyl)-4-piperidinol	361.9	
1198466-20-4	1,1-Dimethylethyl 9-amino-3-azabicyclo[3.3.1]nonane-3-carboxylate	361.65	
1199-05-9	3,4-Dihydro-6-methyl-2H-1,3-benzoxazin-2-one	504.65	
1199-08-2	2-Ethyl-1,4-dimethoxybenzene	274.4	
1199-21-9	(1-Chloro-2-nitroethenyl)benzene	328.65	
1199-38-8	2-Ethyl-1-methyl-4-(1-methylethyl)benzene		484.15
1199-61-7	3,5-Diacetylpyridine	343.65	
1199-72-0	3-Azabicyclo[3.2.2]nonane-3-ethanamine		390.15
119933-33-4	5-(3-Methylphenyl)-1,3,4-oxadiazol-2(3H)-one	386.65	
1199589-72-4	Ethyl 2-[[(benzoylamino)thioxomethyl]amino]-3-thiophenecarboxylate	447.65	