CAS	name	Tm	Tb
1767-88-0	4-(4-Morpholinyl)-2,2-diphenyl-1-(1-pyrrolidinyl)-1-butanone	421.15	
17672-22-9	2-Amino-6-methylphenol	362.15	
17672-23-0	2-Amino-3,6-dimethylphenol	421.15	
17672-28-5	(4-Phenoxyphenyl)hydrazine	329.65	
176739-80-3	8,14-Methano-4H,14H-1-benzopyrano[7,8-d][1,3]benzodioxocin-4-one, 8-(3,4-dihydroxyphenyl)-11-(β-D-glucopyranosyloxy)-2,3-dihydro-5,13-dihydroxy-2-(4-hydroxyphenyl)-, (2R,8R,14R)-	496.65	
17675-99-9	rel-(3R,4R)-Dihydro-3,4-dihydroxy-2(3H)-furanone	374.65	
17676-24-3	Hinokiresinol	343.15	
17680-99-8	p-Cresol glucuronide	420.15	
17681-32-2	N-(2-Benzothiazolylmethyl)-N-methylbenzamide	349.15	
17687-64-8	2-(3-Methyl-2-oxobutyl)-1H-isoindole-1,3(2H)-dione	375.15	
176894-59-0	1H-Tetrazole-5-methanamine, α-methyl-, (αR)-	542.15	
1769-85-3	α-(4-Methoxyphenyl)benzenepropanoic acid	381.65	
17692-22-7	Metizoline	429.65	
17692-56-7	4-Methyl-5,7-bis[2-(4-morpholinyl)ethoxy]-2H-1-benzopyran-2-one	404.65	
17696-89-8	N1,N1,N2,N2-Tetramethyl-1,2-hydrazinedicarboxamide	490.65	
17696-90-1	1-Piperidinecarboxylic acid, 2-(1-piperidinylcarbonyl)hydrazide	462.15	
17698-15-6	2-Thiophenehydroxamic acid	378.15	
1770-82-7	4,4′′′-Diiodo-1,1′:4′,1′′:4′′,1′′′-quaterphenyl	676.15	
177028-91-0	2-Amino-4-(4-nitrophenyl)-5-oxo-4H,5H-pyrano[3,2-c][1]benzopyran-3-carbonitrile	524.15	
1770782-39-2	(9S,11bS)-1,8,9,11b-Tetrahydro-7,11-dihydroxy-3,4,9,11b-tetramethylphenanthro[3,2-b]furan-6(2H)-one	466.35	
17715-70-7	1-Fluoro-2,4-dimethoxybenzene		483.15
177171-16-3	3-(Trimethylsilyl)phenylboronic acid	412.15	
1772-50-5	2-Chloro-7-methyl-1,8-naphthyridine	488.65	
1772-51-6	3,4-Bis(4-chlorophenyl)cyclopentanone	366.15	
17720-64-8	2-(Acetyloxy)-1H-isoindole-1,3(2H)-dione	458.65	
17722-14-4	N1,N3-Bis(3-chlorophenyl)propanediamide	437.15	
17722-32-6	2-Cyano-N-(2,4-dichlorophenyl)acetamide	413.15	
17722-36-0	3-[(3,4-Dichlorophenyl)amino]-3-oxopropanoic acid	404.15	
17727-28-5	1,3,5-Trichloro-2-(2-propyn-1-yloxy)benzene	372.65	
1773-46-2	2-Chlorobenzaldehyde 2-(2,4-dinitrophenyl)hydrazone	484.15	
17733-24-3	1,4-Dichloro-2-(methylthio)benzene	338.65	
17735-95-4	(14Z)-14-Eicosenoic acid	315.65	
17738-79-3	Ethyl 2-[(3-methylphenyl)amino]-2-oxoacetate	333.15	
1774-36-3	1,1′-Sulfinylbis[4-methoxybenzene]	473.15	
17741-61-6	Thiomorpholine, 4-(3-methylphenyl)-, 1,1-dioxide	374.55	
17742-46-0	Phenol, 3,4,5-trimethoxy-, 1-acetate	347.15	
1775-97-9	Flavokawain B	451.65	
17750-35-5	Heptaphylline	443.65	
17758-14-4	1-(4-Methylphenyl)-2(1H)-pyrimidinone	417.65	
17758-54-2	Pyrimidine, 4-methyl-, 1-oxide	351.15	
1776-53-0	4-Aminocyclohexanecarboxylic acid	533.15	
17763-95-0	Methanesulfonic acid, 1,1,1-trifluoro-, 1,1′-[1,1′-biphenyl]-2,2′-diyl ester	308.65	
17764-93-1	1-(5-Bromo-2-hydroxyphenyl)-1-propanone	330.45	
1777-89-5	10-Hydroxycodeine	478.65	
17773-30-7	3-Hydroxyoctadecanoic acid	362.15	
1778-76-3	N-[2-(1H-Pyrrolo[3,2-c]pyridin-3-yl)ethyl]acetamide	488.65	
177861-02-8	(5S)-5-Methyl-3-[(2R,12R,15R)-2,12,15-trihydroxy-15-[(2R,5R)-tetrahydro-5-[(1S)-1-hydroxytridecyl]-2-furanyl]pentadecyl]-2(5H)-furanone	334.65	
1779-17-5	2,2-Bis(3,4-dicarboxyphenyl)propane dianhydride	458.65	
1779-72-2	Pseudourea, 1-allyl-2-(10-phenoxarsinyl)-2-thio-, monohydrochloride	461.15	
177905-10-1	Methyl N-[4-(trifluoromethoxy)phenyl]carbamate	359.65	
17793-63-4	Dihydrogriseofulvin	468.15	
177931-17-8	Sauchinone	498.15	
17795-08-3	S-Ethyl-L-cysteine sulfoxide	439.65	
17795-27-6	3-(2-Propen-1-ylsulfinyl)alanine	458.15	
17796-61-1	4-Acetyl-2-piperazinone	385.65	
1780-26-3	4,6-Dichloro-2-methylpyrimidine	435.65	
1780-28-5	4,5,6-Trichloro-2-methylpyrimidine	341.15	
1780-29-6	4,5,6-Trichloro-2-(chloromethyl)pyrimidine	301.9	
1780-34-3	5-(Bromomethyl)-4,6-dichloro-2-methylpyrimidine	382.65	
1780-35-4	5-(Bromomethyl)-4,6-dichloro-2-(chloromethyl)pyrimidine	401.15	
1780-37-6	5-(Bromomethyl)-2,4,6-trichloropyrimidine	404.65	
1780-38-7	2,4,6-Trichloro-5-ethylpyrimidine	349.15	
1780-42-3	2,4,6-Trichloro-5-(1-methylethyl)pyrimidine	343.15	
1780-73-0	N-Methyl-6-(trifluoromethyl)-1H-pyrazolo[3,4-d]pyrimidin-4-amine	589.65	
17804-42-1	Piperazine, 1,4-bis(2-bromo-2-methyl-1-oxopropyl)-	462.65	
17808-21-8	6-Chlorotryptophan	558.65	
1781-70-0	Nitrocyclododecane	302.65	
1781-84-6	Dispiro[5.2.5.2]hexadecan-1-one	358.65	
17812-32-7	Methyl L-aspartate	440.15	
17815-98-4	3-Chloro-N,N-dimethyl-4-nitrobenzenamine	396.65	
17815-99-5	4-Chloro-N,N-dimethyl-2-nitrobenzenamine	329.65	
17816-87-4	2-Amino-5,5-dimethyl-4(5H)-oxazolone	518.65	
1782-07-6	3,6-Dimethyl-4-(2-propen-1-yl)pyrazolo[1,5-a]pyrimidin-7(4H)-one	434.15	
1782-47-4	5-Hydroxyconiferyl alcohol	375.15	
1782-55-4	5-Hydroxyferulic acid	442.15	
17823-33-5	3-(2-Bromoacetyl)benzenesulfonamide	404.15	
17826-05-0	5,6-Dibromoisatin	562.15	
17826-06-1	2,3,5,6-Tetrabromo-1H-indole	426.65	
178262-31-2	Methyl 7-isoquinolinecarboxylate	373.15	
17834-03-6	7-Hydroxywarfarin	477.15	
17839-53-1	2-Mercapto-6-methylbenzoic acid	383.15	
1784-08-3	2(1H)-Pyrimidinone, 6-amino-, hydrochloride (1:1)	536.65	
1784-10-7	1,1′-(1,4-Piperazinediyl)bis[2-phenoxyethanone]	476.65	
1784-11-8	1,1′-(1,4-Piperazinediyl)bis[2-(2-chlorophenoxy)ethanone]	554.15	
1784-71-0	3,9-Dihydro-1,3-dimethyl-8-(methylthio)-1H-purine-2,6-dione	587.15	
17841-66-6	Benzoic acid, 4-[[[(4-methoxyphenyl)methyl]amino]methyl]-, ethyl ester, hydrochloride (1:1)	522.65	
178449-64-4	6-(4-Chlorophenyl)-3-methylimidazo[2,1-b]thiazole-5-carboxaldehyde	414.15	
17847-44-8	N-(3,4-Dichlorophenyl)methanesulfonamide	390.15	
1785-03-1	1,3,5-Tris(4-methylphenyl)-1,3,5-triazine-2,4,6(1H,3H,5H)-trione	541.15	
1785-10-0	N-(2,7-Dibromo-9H-fluoren-4-yl)acetamide	540.9	
17852-52-7	4-Hydrazinylbenzenesulfonamide hydrochloride	477.15	
17862-85-0	3-Methoxyamphetamine	389.65	
17863-69-3	1,2-Didecanoylglycerol	301.65	
178631-05-5	1-Hexyl-3-methylimidazolium iodide	473.15	
17865-11-1	[4-(Trimethylsilyl)phenyl]boronic acid	466.65	
17869-76-0	Trimethyl[(1-methyl-2-propyn-1-yl)oxy]silane	401.15	
17874-33-8	6-(1,1-Dimethylethyl)-4,8-dimethyl-2H-1-benzopyran-2-one	432.65	
17874-35-0	2-[[[4-(1,1-Dimethylethyl)phenyl]methyl]thio]acetic acid	348.15	
17874-79-2	5-Methyl 2,5-pyridinedicarboxylate	450.9	
17874-84-9	2-Benzoylcyclododecanone	327.15	
17879-89-9	D-Ribitol, 1-deoxy-1-(1,3,4,7-tetrahydro-6-methyl-2,4,7-trioxo-8(2H)-pteridinyl)-	533.65	
1788-36-9	3-Acetyl-4H-quinolizin-4-one	457.65	
1788-94-9	2-Methyl-3-(2-nitrophenyl)-4(3H)-quinazolinone	443.15	
1788-95-0	3-(4-Bromophenyl)-2-methyl-4(3H)-quinazolinone	422.15	
1788-96-1	2-Methyl-3-(4-nitrophenyl)-4(3H)-quinazolinone	466.15	
17884-88-7	(3β,13α)-13-Methyl-27-norolean-14-ene-3,28-diol	535.65	
17900-75-3	2-Chloro-N-[2-(1,1-dimethylethyl)phenyl]acetamide	371.12	
17901-14-3	2-Amino-N,N-diethyl-6-benzothiazolesulfonamide	470.4	
17902-24-8	5-Chloro-1-(tetrahydro-2-furanyl)-2,4(1H,3H)-pyrimidinedione	471.15	
17902-57-7	2,2-Dimethyl-4H-1,3,2-benzodioxasilin-4-one	335.15	
179056-81-6	3-(1H-Imidazol-5-yl)benzaldehyde	410.65	
179057-19-3	5-Phenyl-1H-pyrazole-3-methanol	422.35	
179057-31-9	4-(5-Oxazolyl)benzaldehyde	377.15	
179110-57-7	Ethyl 2-(1,3-benzodioxol-5-yloxy)acetate	334.15	
1792-83-2	2,6-Diphenyl-4H-1,3,5-oxadiazin-4-one	438.95	
17920-37-5	6-Amino-1-methyl-2(1H)-pyridinone	440.15	
17920-86-4	2-Furyl ketone	429.65	
17921-64-1	(3β)-3-(Acetyloxy)androsta-5,15-dien-17-one	453.15	
17928-61-9	(1aS,1bR,2aR,6R,6aR,9aS,10aS)-1a,1b,2a,6a,7,9a,10,10a-Octahydro-10a-methyl-7-methylene-4H-6,3-methenofuro[3,2-c]bisoxireno[f,h]oxacycloundecin-4,8(6H)-dione	494.65	
1793-94-8	1,4:3,6-Dianhydro-2,5-dideoxyhexitol		427.15
17931-27-0	2-(Methylthio)naphtho[2,1-d]thiazole	341.65	
179341-69-6	4-(Dodecyloxy)benzamide	370.15	
17938-70-4	1-Iodo-4-methoxy-2,3-dimethylbenzene	312.65	
179388-73-9	Propanoic acid, 3-hydroxy-2-(hydroxymethyl)-2-methyl-, phenylmethyl ester	348.15	
1794-58-7	3′,4′-Dimethoxy[1,1′-biphenyl]-2-carboxylic acid	437.15	
1794-74-7	Cyclohexanaminium, N-hexadecyl-2-hydroxy-N,N-dimethyl-, bromide (1:1)	348.15	
179469-45-5	3-Azido-4-methoxybenzeneacetic acid	391.65	
17948-40-2	(2S)-2-(Dimethylamino)-N-[(3R,4S,7S)-5,8-dioxo-3-phenyl-7-(phenylmethyl)-2-oxa-6,9-diazabicyclo[10.2.2]hexadeca-10,12,14,15-tetraen-4-yl]-3-methylbutanamide	558.15	
17948-42-4	(6S,7R)-6,7-Dihydro-7-methyl-5H-cyclopenta[c]pyridin-6-ol	404.15	
17948-43-5	Morphinan-6-ol, 3-methoxy-17-methyl-, (6β,14α)-	389.65	
17949-65-4	Zinc picolinate	496.65	
17951-19-8	Justicidin B	513.15	
17954-12-0	1,3-Bis(2-formylphenoxy)propane	370.65	
17955-84-9	2,7-Dibromo-9-(trimethylsilyl)-9H-fluorene	422.15	
17957-87-8	(4aR,7R,7aR)-Hexahydro-7-methylcyclopenta[c]pyran-3(1H)-one		381.65
1796-84-5	4-Ethoxy-3-nitropyridine	322.65	
17965-76-3	5-Bromo-1,7-naphthyridine	348.65	
17965-77-4	3,5-Dibromo-1,7-naphthyridine	427.65	
17965-78-5	3-Bromo-1,8-naphthyridine	438.15	
17965-80-9	1,5-Naphthyridin-2-amine	477.65	
17965-82-1	1,7-Naphthyridin-8-amine	441.65	
17965-99-0	9-Methyl-9H-pyrido[2,3-b]indole	325.15	
17966-67-5	N-Benzoyl-DL-leucine	409.15	
179688-29-0	6,7-Bis(2-methoxyethoxy)quinazolin-4(3H)-one	455.15	
179688-52-9	6-Hydroxy-7-methoxy-4(3H)-quinazolinone	566.15	
17969-17-4	Ethyl 2-(4-bromophenyl)-4-thiazoleacetate	317.65	
17969-24-3	2-(4-Fluorophenyl)-4-thiazoleacetic acid	396.15	
17969-26-5	2-(3-Chlorophenyl)-4-thiazoleacetic acid	372.65	
17969-45-8	4-(4-Bromophenyl)-α-methyl-2-thiazoleacetic acid	383.15	
17969-64-1	N-[2-[2-(4-Chlorophenyl)-4-thiazolyl]acetyl]glycine	498.15	
179693-86-8	2,3-Dihydro-1,4-benzodioxin-5,8-dicarboxaldehyde	412.9	
179694-35-0	(1R)-1-(4-Fluorophenyl)-1,2-ethanediol	334.65	
1797-87-1	Isosepiapterin	531.15	
17984-17-7	(25R)-24-Methylene-3-oxo-9,19-cyclolanostan-26-oic acid	421.65	
17984-91-7	Methyltris(2-propen-1-yloxy)silane		473.15
17987-78-9	6,8-Diiodo-2-methyl-4H-3,1-benzoxazin-4-one	524.15	
179873-48-4	[2,2′-Bipyridine]-5-carboxaldehyde	365.55	
179897-94-0	5-Fluoro-2-methoxyphenylboronic acid	430.15	
17990-16-8	(+)-cis-Abienol	312.65	
17990-43-1	Olean-12-en-28-oic acid	481.15	
17994-56-8	Ethyl 1,2,3,4-tetrahydro-4,6-dimethyl-2-oxo-5-pyrimidinecarboxylate	462.65	
17996-13-3	Phenylmethyl N-(4-hydroxybutyl)carbamate	355.65	
18000-25-4	1,1,1-Trimethoxy-2,2,2-trimethyldisilane		438.15
18001-81-5	1,1′-(1,4-Butanediyl)bis[1,1,1-trimethylsilane]	463.65	
18002-26-1	1-(Tetrahydro-2-furanyl)-2,4(1H,3H)-pyrimidinedione	388.2	
180028-94-8	6-Amino-2,3-dihydro-1-(2-methoxyphenyl)-2-thioxo-4(1H)-pyrimidinone	495.65	
18003-33-3	6-Hydroxyluteolin	548.15	
18004-63-2	8-Quinolinemethanamine, hydrochloride (1:2)	530.65	
1801-07-6	1H-Pyrazole, 1-(2-chloro-1,1,2-trifluoroethyl)-		409.15
1801-64-5	1-Methyl-5-oxo-2-thioxo-4-imidazolidinepropanoic acid	419.15	
18011-20-6	Phenyl(1-phenyl-1H-1,2,4-triazol-3-yl)methanone	377.15	
18014-96-5	4-Methoxybenzofuran		494.15
18016-58-5	Quercetin 3-O-glucoside 7-O-rhamnoside	504.15	
18019-23-3	β-Alanine, N-carbamoyl-, methyl ester	343.65	
1802-29-5	[2,2′-Bipyridine]-5,5′-dicarbonitrile	545.65	
1802-33-1	[3,3′-Bipyridine]-5-carbonitrile	425.65	
18028-56-3	1,4,6-Trimethyl-9H-carbazole	399.65	
1803-57-2	Glycine, N-(N-formyl-L-valyl)-	493.15	
1803-64-1	N-(1,3-Dioxobutyl)-L-leucine	389.15	
18031-57-7	α-D-Glucopyranoside, methyl 4,6-O-(phenylmethylene)-, 3-acetate	449.65	
18046-23-6	2,3,3a,4,5,6-Hexahydro-1H-pyrazino[3,2,1-jk]carbazole	344.15	
18046-77-0	(11β,17β)-17-Hydroxy-11-methylestr-4-en-3-one	432.15	
180465-84-3	1,1-Dimethylethyl 1,2-dihydrospiro[3H-indole-3,4′-piperidine]-1′-carboxylate	446.65	
180476-33-9	Methyl 2-decyldodecanoate	299.15	
18048-64-1	2-(3,4-Dimethylphenyl)-2,4-dihydro-5-methyl-3H-pyrazol-3-one	390.15	
1805-65-8	2-(1,1-Dimethylethyl)-1H-indole	340.15	
1805-78-3	Ismine	370.65	
1805-85-2	7,8-Didehydro-3,4,7,8-tetramethoxy-17-methylhasubanan-6-one	387.65	
18055-71-5	1,1′-Oxybis[4-(trimethylsilyl)benzene]	318.65	
18058-50-9	1H-Pyrano[3,4-c]pyridine-5-carboxaldehyde, 3,4,6,7-tetrahydro-6-methyl-1-oxo-	492.15	
18059-10-4	Peiminine	408.15	
180590-18-5	4-[[2-(Dimethylamino)ethyl]thio]-1,2-benzenedicarbonitrile	399.15	
1806-24-2	5-Chloro-2-nitro-N-phenyl-4-(trifluoromethyl)benzenamine	376.65	
18060-84-9	Methyl 22-hydroxytetracosanoate	347.45	
180613-20-1	4-Pyridinecarboxylic acid (2E)-2-[(2-nitrophenyl)methylene]hydrazide	507.15	
18063-21-3	Haplophyllidine	383.65	
18064-89-6	1-(3-Bromo-2-hydroxy-4,6-dimethoxyphenyl)ethanone	460.15	
18067-39-5	(2S,3R)-2-(Dimethylamino)-3-methyl-N-[(3R,4S,7S)-7-(2-methylpropyl)-5,8-dioxo-3-phenyl-2-oxa-6,9-diazabicyclo[10.2.2]hexadeca-10,12,14,15-tetraen-4-yl]pentanamide	551.15	
18069-14-2	Polypodine B	514.65	
18069-96-0	Stigmast-7-en-3-one	429.15	
180695-80-1	1,1-Dimethylethyl 4-azido-1-piperidinecarboxylate		414.15
1807-69-8	Methyl α-diazo-β-oxobenzenepropanoate	356.65	
18070-40-1	(7R)-6,7-Dihydro-7-methyl-5H-cyclopenta[c]pyridine-4-carboxaldehyde		358.15
18076-30-7	3,4,5-Triphenyl-1H-pyrazole	502.65	
180793-11-7	Acetic acid, cyano-, (phenylmethylene)hydrazide, (E)-	463.15	
18080-67-6	Quinoxaline, 2,3-bis(bromomethyl)-, 1,4-dioxide	458.15	
180863-55-2	Methyl 3-[[[(1,1-dimethylethoxy)carbonyl]amino]methyl]benzoate	361.15	
18087-11-1	1-Methoxy-4,5-dimethyl-2-nitrobenzene	352.15	
18087-75-7	3-Nitroimidazo[1,2-b]pyridazine	480.15	
18087-76-8	6-Chloro-3-nitroimidazo[1,2-b]pyridazine	483.15	
18089-44-6	Pterosterone	502.65	
18092-55-2	4,5-Dimethoxy-2-nitrobenzenesulfonyl chloride	401.15	
18093-88-4	5-Methyl-1-phenyl-1H-pyrazole-4-carbonitrile	317.65	
1810-60-2	1,2,3,4-Tetrahydro-6,6′-dimethoxy[3,4′-biisoquinoline]-7,7′-diol	507.15	
1810-72-6	2,6-Dichloroquinoline	435.65	
1810-73-7	7-Chloro-1,2-dihydro-2,2,4-trimethylquinoline	311.65	
1810-74-8	1,2-Dihydro-7-methoxy-2,2,4-trimethylquinoline	341.15	
18102-31-3	2-Methoxy-3-methylphenol	310.65	
18103-74-7	4-Mercapto-2-pyridinecarboxylic acid	462.15	
181048-49-7	2-(2-Methoxyphenyl)-4-quinolinecarboxylic acid	493.45	
18107-18-1	Trimethylsilyldiazomethane		369.15
1811-23-0	(+)-Confertifolin	426.15	
1811-38-7	1,2,3,6-Tetrahydro-1,3-dimethyl-2,6-dioxo-7H-purine-7-propanenitrile	433.15	
1811-58-1	4-(3-Phenyl-2-propen-1-yl)-1-piperazineethanol	438.15	
18110-27-5	2-[(4-Butoxyphenoxy)methyl]oxirane	307.65	
18110-86-6	4-Methoxy-5-hydroxycanthin-6-one	497.65	
18110-87-7	4,5-Dimethoxycanthin-6-one	418.65	
18112-32-8	6-Chloro-2-methyl-3-nitroimidazo[1,2-b]pyridazine	469.15	
18113-07-0	4-Chloro-3-methoxyphenol	352.65	
18113-21-8	2-Chloro-3,5-dimethoxyphenol	333.15	
181135-48-8	2-(4-Methoxyphenyl)-1H-benzimidazole-7-carboxamide	535.15	
181139-72-0	Methyl 2-[(3S)-3-[3-[(1E)-2-(7-chloro-2-quinolinyl)ethenyl]phenyl]-3-hydroxypropyl]benzoate	357.15	
1812-63-1	(21β)-A′-Neogammacer-22(29)-en-3-one	476.15	
18125-49-0	1,2-Dihydro-5-(hydroxymethyl)-1-methyl-2-phenyl-3H-pyrazol-3-one	413.15	
181283-83-0	5-Amino-6-quinolinecarboxylic acid	491.65	
181284-95-7	Methyl 6-amino-1H-benzimidazole-5-carboxylate	442.65	
181289-15-6	3-(Carbamoylmethyl)-5-methylhexanoic acid	382.15	
1813-83-8	3,3,4,4,5,5,6,6,7,7,8,8-Dodecafluoro-1,10-diiododecane	363.65	
18144-44-0	1-Methylpropyl 4-aminobenzoate	328.15	
18147-06-3	2,2-Dimethyl-1,4-dioxa-2-silacyclohexane		410.15
181517-99-7	4-[[[(2-Methylphenyl)amino]carbonyl]amino]benzeneacetic acid	485.65	
181528-64-3	2H,10H-Furo[3,2-i]-2-benzopyran-10-ol, octahydro-8-methoxy-4,7-dimethyl-, 10-acetate, (3aS,4R,6aS,7R,8S,10R,10aR)-	366.65	
18153-17-8	3-Cyanobenzenepropanenitrile	359.65	
18156-75-7	1-(Trimethylsilyl)-1H-pyrazole		426.65
18157-34-1	Trichloro[2-(trimethylsilyl)ethyl]silane	255.15	
18158-44-6	4′-Methoxy-N,N-dimethyl[1,1′-biphenyl]-4-amine	424.65	
18158-56-0	1-(3-Hydroxy-4-methylphenyl)-1-propanone	394.15	
18159-18-7	Methyl 1-(phenylmethyl)-1H-pyrrole-3-carboxylate	324.65	
1816-85-9	11β-Hydroxytestosterone	508.15	
18165-20-3	Silane, (chloromethyl)methyl-		332.15
18165-71-4	Methyl trimethylsilyl sulfate		474.15
18166-43-3	Silicic acid (H4SiO4), tris(1,1-dimethylethyl) ester	338.65	
18169-68-1	1,1-Dimethoxysilacyclopentane		421.65
1817-49-8	α-(2-Phenylethynyl)benzenemethanol	322.65	
1817-76-1	1,1′-Methylenebis[2,4-dinitrobenzene]	446.65	
1817-95-4	4-Methoxy-1,3-benzodioxole	314.15	
181701-06-4	Interiotherin A	426.65	
181701-07-5	(5S,6S,7S,13aS)-5,6,7,8-Tetrahydro-6-hydroxy-13,14-dimethoxy-6,7-dimethylcycloocta[1,2-f:3,4-f′]bis[1,3]benzodioxol-5-yl (2Z)-2-methyl-2-butenoate	370.4	
181718-71-8	Romucosine	425.65	
18178-54-6	Rishitin	339.15	
18179-40-3	2-Hydroxy-5-iodobenzamide	460.15	
18184-75-3	6-(Phenylmethyl)-5H-pyrrolo[3,4-b]pyridine-5,7(6H)-dione	440.65	
181867-24-3	1H-Pyrazole-4-carboxylic acid, 3-phenyl-, ethyl ester	385.65	
181934-31-6	1-(2-Phenylethynyl)-1,2-benziodoxol-3(1H)-one	424.65	
181950-55-0	4-Chloro-7-quinolinecarbonitrile	439.15	
18197-26-7	Formamide, N-formyl-, sodium salt	515.15	
18202-53-4	6-(1-Pyrrolidinyl)-9H-purin-2-amine	542.15	
18203-11-7	Chelirubine	490.65	
18209-37-5	(αS,2R)-α-Ethyl-2-piperidinemethanol	391.15	
1821-24-5	1-(4-Methylphenyl)cyclohexanol	330.65	
1821-34-7	N-Chlorobenzamide	389.15	
18210-01-0	4-[(2-Thienylmethylene)amino]phenol	477.65	
18210-84-9	5-Bromo-1H-indole-1-propanenitrile	345.15	
18211-34-2	N-(1-Phenylethyl)-1H-indole-3-carboxamide	467.65	
182120-83-8	1,1-Dimethylethyl N-[[4-(aminothioxomethyl)-2-thiazolyl]methyl]carbamate	419.65	
182159-40-6	2-Pyridinecarbonitrile, 5-(aminomethyl)-, hydrochloride (1:1)	535.15	
18227-41-3	Propylhydantoin	408.15	
18227-66-2	3-Methyl-N-nitro-4-pyridinamine	485.15	
18227-67-3	3-Methyl-5-nitro-4-pyridinamine	466.15	
1823-15-0	3-Nitrobenzenebutanoic acid	398.15	
1823-52-5	4,4-Dimethyl-2-oxetanone	246.9	
1823-63-8	2,2,2-Trifluoro-1-(4-hydroxyphenyl)ethanone	387.15	
18230-63-2	1,1-Bis(2-methylpropyl)silanediol	373.65	
18233-16-4	2-Hydroxybenzoic acid 2-(aminocarbonyl)hydrazide	514.15	
18233-37-9	2-(2,4-Dichlorophenoxy)acetic acid 2-[(phenylamino)thioxomethyl]hydrazide	432.65	
18233-70-0	Monoacetyl-1,4-diaminobutane hydrochloride	413.65	
182344-23-6	B-[4-Fluoro-3-(trifluoromethyl)phenyl]boronic acid	541.15	
182346-21-0	2,2′,3,4,4′-Pentabromodiphenyl ether	396.65	
182362-51-2	N-[(1S,2S,3R)-2,3-Dihydroxy-1-(hydroxymethyl)heptadecyl]hexacosanamide	382.15	
1824-70-0	2-Amino-5-chloro-α-phenylbenzenemethanamine	495.15	
1824-88-0	Methyl α-D-glucofuranoside	335.65	
182417-73-8	3-[(R)-[(2S,5R)-2,5-Dimethyl-4-(2-propen-1-yl)-1-piperazinyl](3-hydroxyphenyl)methyl]-N-(3-fluorophenyl)-N-methylbenzamide	417.65	
18242-39-2	1-Bromo-3,5-dinitrobenzene	350.15	
182499-90-7	2-Amino-5-ethylphenol	503.15	
1825-26-9	Pentabromoanisole	446.65	
1825-69-0	Chloroethoxydimethylsilane		369.15
1825-75-8	Dichloroethoxymethylsilane		374.35
1825-83-8	Trichloropropoxysilane		400.15
182500-28-3	4-Bromo-5-methyl-2-nitrophenol	399.15	
182556-18-9	1,4-Dihydro-1-methyl-4-oxo-3-pyridinesulfonamide	519.65	
1826-15-9	4,5-Diphenylthiazole	330.15	
1826-18-2	5-Methyl-4-phenylthiazole		551.15
1826-19-3	4-(4-Methylphenyl)thiazole	339.65	
1826-20-6	4-(4-Bromophenyl)thiazole	349.65	
1826-21-7	4-(4-Methoxyphenyl)thiazole	358.15	
1826-22-8	4-(4-Chlorophenyl)thiazole	337.15	
1826-24-0	4,5-Dimethyl-2-phenylthiazole		541.15
18260-60-1	2,4,6-Trifluoro-5-methylpyrimidine		406.15
18260-66-7	2,6-Difluoro-5-methyl-4-pyrimidinamine	456.65	
18260-67-8	2-Fluoro-5,6-dimethyl-4-pyrimidinamine	500.15	
18260-81-6	4-Fluoro-6-methyl-2-pyrimidinamine	471.15	
1827-75-4	Androstan-17-ol, 3,3-difluoro-, acetate, (5α,17β)-	410.4	
182824-33-5	1-[(3R,5aS,6R,8aS,9R,10R,12R,12aR)-Decahydro-3,6,9-trimethyl-3,12-epoxy-12H-pyrano[4,3-j]-1,2-benzodioxepin-10-yl] butanedioate	371.05	
18288-28-3	α,2,5-Trimethylbenzeneacetic acid	375.65	
18289-92-4	Stearic acid, [(trityloxy)methyl]ethylene ester, (S)-(+)-	338.65	
1829-22-7	2-Iodo-1,4-benzenedicarboxylic acid	572.65	
1829-23-8	1,2-Benziodoxol-3(1H)-one, 1,1′-oxybis-	500.15	
1829-26-1	1-(Acetyloxy)-1,2-benziodoxol-3(1H)-one	436.65	
1829-33-0	3-Chloro-5-hydroxybenzaldehyde	377.15	
1829-84-1	4-Amino-N-(4-methyl-3-isoxazolyl)benzenesulfonamide	455.65	
18292-39-2	Trimethyl(2-methyl-1-propen-1-yl)silane		384.9
18294-85-4	2-Hydroxyadipic acid	424.15	
18297-65-9	1,1-Diethyl-2-(trimethylsilyl)hydrazine		417.85
183057-60-5	7-Fluoro-4(1H)-quinolinone	480.15	
183198-63-2	2-Methoxy-N-(phenylmethyl)benzamide	360.65	
183204-72-0	Tipiracil hydrochloride	518.15	