CAS	name	Tm	Tb
1584-62-9	2-Bromo-N-[4-chloro-2-(2-fluorobenzoyl)phenyl]acetamide	405.9	
15840-96-7	Cyclohexanecarboxylic acid, cyclohexyl ester	444.65	
15845-96-2	Diflucortolone pivalate	468.4	
15846-25-0	3-Amino-2-butenamide	373.65	
15846-26-1	3-[(2-Methyl-1-oxopropyl)amino]-2-butenamide	421.15	
15846-31-8	4-Amino-1,4,5,6-tetrahydro-2,4-dimethyl-6-oxo-3-pyridinecarboxamide	470.15	
15847-64-0	1-Propanone, 1-(4-phenyl-4-piperidinyl)-, hydrochloride (1:1)	483.05	
1585-06-4	4-Ethoxyethylbenzene		483.15
1585-07-5	1-Bromo-4-ethylbenzene	229.65	477.15
1585-16-6	2,4,6-Trimethylbenzyl chloride	310.15	
1585-40-6	Benzenepentacarboxylic acid	497.65	
15852-34-3	2,5-Dihydroxy-2,4,6-cycloheptatrien-1-one	517.15	
15854-73-6	4-Methoxy-3-nitro-1,1′-biphenyl	345.15	
15857-68-8	4H-1-Benzothiopyran-4-one, 2,3-dihydro-, oxime	372.15	
15857-70-2	2H-1-Benzothiopyran-4-amine, 3,4-dihydro-, hydrochloride (1:1)	501.65	
1586-00-1	2-(Phenylmethyl)benzenemethanol	313.65	
1586-10-3	5H-Dibenzo[a,d]cyclohepten-10-amine, 10,11-dihydro-, hydrochloride (1:1)	550.15	
1586-73-8	1,1,1-Trimethyl-N,N-bis(trimethylsilyl)silanamine	343.65	
1586-92-1	Diethylaluminum ethoxide	223.15	381.65
15860-31-8	2-Benzoylfluorene	395.15	
15861-24-2	Indole-5-carbonitrile	380.15	
15861-36-6	1H-Indole-6-carbonitrile	402.65	
15862-31-4	3-Bromo-5-nitro-2-pyridinamine	488.15	
15862-34-7	5-Bromo-3-nitro-2(1H)-pyridinone	510.65	
15862-86-9	2-Piperidinecarboxylic acid, hydrochloride (1:1)	537.15	
15864-32-1	2-Amino-6-bromobenzothiazole	484.15	
15866-90-7	Incyclinide	502.65	
15869-85-9	5-Methylnonane	185.45	438.25
15869-86-0	4-Ethyloctane		436.85
15869-93-9	3,5-Dimethyloctane		432.55
15869-94-0	3,6-Dimethyloctane		433.95
1587-20-8	Trimethyl citrate	352.45	558.15
1587-41-3	Dichlorodinitromethane		394.65
15870-10-7	2-Methyl-1-heptene	183.15	392.45
15872-41-0	4-(Pentyloxy)benzoic acid	421.15	
15872-42-1	4-(Heptyloxy)benzoic acid	366.65	
15872-43-2	4-(Nonyloxy)benzoic acid	391.15	
15872-44-3	4-(Undecyloxy)benzoic acid	394.15	
15873-51-5	4-Nitroaniline hydrochloride	418.65	
15874-48-3	Phosphorodithioic acid, O,O-dipropyl ester, antimony(3+) salt (3:1)	352.65	
15875-13-5	Desmorapid	542.65	
158751-64-5	5-Chloro-2-methoxy-N-[2-[4-methoxy-3-[[[(methylamino)thioxomethyl]amino]sulfonyl]phenyl]ethyl]benzamide	464.65	
15877-57-3	3-Methylpentanal		394.15
15878-00-9	4-Chloropyrazole	345.15	
15879-93-3	Chloralose	456.15	
1588-83-6	4-Amino-3-nitrobenzoic acid	557.15	
1588-89-2	2,3-Diphenylpyrazine	393.15	
15883-20-2	2′,6′-Pipecoloxylidide	394.15	
15886-83-6	1,8-Octanediol, 1,8-dimethanesulfonate	327.65	
15886-84-7	1,3-Propanediol, 1,3-dimethanesulfonate	311.65	
158876-82-5	Rupatadine	409.65	
1589-47-5	2-Methoxy-1-propanol		403.15
1589-49-7	3-Methoxy-1-propanol		339.15
1589-60-2	1-Phenylcyclohexanol	336.65	
1589-61-3	Cyclohexanone, semicarbazone	438.65	
1589-62-4	Cyclohexanone 2-(2,4-dinitrophenyl)hydrazone	429.9	
15893-52-4	2,4-Dihydroxy-7-methoxy-1,4-benzoxazin-3-one	425.65	
15894-70-9	1,6-Bis(cyanoguanidino)hexane	475.65	
158966-92-8	Montelukast	419.65	
1590-02-9	2-Methyl-1,2,3-propanetricarboxylic acid	428.15	
1590-08-5	2-Methyl-1-tetralone	288.15	
1590-67-6	[4-(Hexadecylsulfonyl)phenyl]hydrazine	372.15	
1590-87-0	Disilane	141.15	258.65
15901-42-5	3,3,5-Trimethylcyclohexanamine		452.75
15903-94-3	6-(Phenylmethoxy)-1H-indole	384.65	
15905-16-5	2,6-Pyridinedicarboxylic acid, 1-oxide	429.15	
15905-18-7	3-Pyridinecarboxylic acid, methyl ester, 1-oxide	370.65	
15905-32-5	2′,4′,5′,7′-Tetraiodofluorescein	564.15	
15909-68-9	Methyl D-arabinonate	411.15	
15909-94-1	5-(2,5-Dihydro-5-thioxo-1H-tetrazol-1-yl)-1,3-benzenedicarboxylic acid	491.15	
1591-02-2	Dibutoxydimethylsilane	454.65	460.15
1591-30-6	[1,1′-Biphenyl]-4,4′-dicarbonitrile	506.15	
1591-31-7	4-Iodobiphenyl	386.65	593.15
1591-56-6	N-[4-[2-[4-(Dimethylamino)phenyl]diazenyl]phenyl]acetamide	499.65	
15910-11-9	1,3-Butadiene-1,4-diol, 1,4-diacetate, (1E,3E)-	371.15	
15917-27-8	rel-(βS)-β-Hydroxy-4-nitro-D-phenylalanine methyl ester	425.15	
1592-23-0	Calcium stearate	452.15	
1592-31-0	1,4-Bis(dibromomethyl)benzene	442.15	
1592-38-7	2-Naphthalenemethanol	354.45	451.15
1593-77-7	Dodemorph	344.15	463.15
15930-53-7	6-Bromo-1,3-benzodioxole-5-carboxaldehyde	402.15	
15933-59-2	Tetramethyldisilazane		372.65
15936-45-5	2-(3-Methyl-2-buten-1-yl)-1H-isoindole-1,3(2H)-dione	371.15	
1594-08-7	1-Hydroxy-4-[[4-[(methylsulfonyl)oxy]phenyl]amino]-9,10-anthracenedione	452.65	
1594-56-5	2,4-Dinitrophenyl thiocyanate	411.65	
1594-57-6	N-Hydroxyisonicotinamidine	451.65	
1594-64-5	1,4,5-Trichloro-9,10-anthracenedione	527.15	
15944-33-9	2-Amino-7-chloro-1,8-naphthyridine	453.65	
15945-07-0	2,4,5-Trichlorobenzenesulfonyl chloride	339.15	
15945-28-5	Benzoic acid, 3,5-dichloro-4-methoxy-, ethyl ester	333.65	
1595-05-7	1-Butyl-4-methylbenzene	188.15	362.15
1595-15-9	Benzaldehyde, 2-hydroxy-5-nitro-, oxime	449.65	
1595-16-0	1-Methyl-4-sec-butylbenzene		475.65
15950-66-0	2,3,4-Trichlorophenol	356.65	
1596-09-4	2-Cyclohexyl-4-methylphenol	329.15	
1596-63-0	Quinacillin	409.15	
1596-64-1	L-Histidinol dihydrochloride	467.15	
1596-67-4	L-Thyronine	528.15	
1596-84-5	Daminozide	427.65	
15961-23-6	3-(Trichlorogermyl)propionic acid	357.15	
15961-24-7	3-(Trichlorogermyl)propanoyl chloride	344.15	
15962-46-6	N-Acetyl-DL-phenylglycine	463.15	
15964-80-4	Methyl homovanillate	391.15	
15965-31-8	5-Chloro-1H-imidazole	393.65	
15965-99-8	Hexadecyl glycidyl ether	299.45	
15968-05-5	2,2′,6,6′-Tetrachlorobiphenyl	471.15	
1597-82-6	Paramethasone acetate	507.65	
15971-29-6	4-Methoxy-1-naphthaldehyde	307.95	
15972-60-8	Alachlor	313.65	373.15
15974-34-2	Bis(diethyldithiocarbamato)cobalt	429.15	
15980-15-1	1,4-Oxathiane	303.15	420.15
15986-80-8	2-Methyl-3-propylpyrazine		462.15
15987-50-5	1,3,4,5-Tetrahydro-2H-3-benzazepin-2-one	432.15	
15988-11-1	4-Phenyl-1,2,4-triazolidine-3,5-dione	475.65	
159883-95-1	(+)-1-(2,2-Diethoxyethyl)-2,3-dihydro-N-(4-methylphenyl)-3-[[[(4-methylphenyl)amino]carbonyl]amino]-2-oxo-1H-indole-3-acetamide	374.15	
15989-50-1	4,6-Bis(phenylamino)-1,3,5-triazine-2(1H)-thione	658.15	
1599-41-3	1,2,2-Trichloro-1,1,3,3,3-pentafluoropropane	268.85	345.15
1599-47-9	1,1-Dimethoxyhexane		431.15
1599-67-3	1-Docosene	311.15	640.15
1599-68-4	1-Heneicosene	308.65	
15995-72-9	Benzeneethanamine, 2,4,5-trimethoxy-α-methyl-, hydrochloride (1:1)	460	
15997-44-1	1-Benzopyrylium, 5,6,7,8-tetrahydro-2,4-diphenyl-, perchlorate (1:1)	483.15	
159989-64-7	Nelfinavir	458.65	
1600-27-7	Mercuric acetate	452.15	
1600-37-9	1,1,2,3,3-Pentachloro-1-propene	286.65	458.15
16000-39-8	2-Methoxy-1-naphthalenecarbonitrile	368.15	
16004-15-2	4-Iodobenzyl bromide	357.9	
16006-74-9	Benzoic acid, 3,4,5-trimethoxy-, 4-butyl-2,5-dihydro-5-oxo-1,2-diphenyl-1H-pyrazol-3-yl ester	388.65	
16008-36-9	Methyldesorphine	512.15	
1601-18-9	Methyl 1-(4-chlorobenzoyl)-5-methoxy-2-methyl-1H-indole-3-acetate	372.65	
1601-98-5	4,4′-Dibromoazobenzene	477.15	
16011-06-6	L-Glutamic acid, N-acetyl-, compd. with L-arginine (1:1)	399.65	
16011-90-8	Butanenitrile, 4-amino-, hydrochloride (1:1)	417.15	
16011-97-5	N1,N4-Dimethyl-1,4-butanediamine		441.15
16012-70-7	N-[(Phenylmethoxy)carbonyl]-L-alanyl-L-alanine	411.15	
16013-85-7	2,6-Dichloro-3-nitropyridine	327.15	
16017-37-1	(T-4)-Tris(nitrato-κO)oxovanadium		330.65
16018-52-3	N-(1,6-Dihydro-4-methyl-6-oxo-2-pyrimidinyl)-N′-phenylguanidine	518.15	
16018-53-4	N-(1,6-Dihydro-4-methyl-6-oxo-2-pyrimidinyl)-N′-(4-nitrophenyl)guanidine	533.15	
1602-00-2	1,2-Bis(4-chlorophenyl)diazene	452.15	
1602-40-0	N2-(2,4-Dinitrophenyl)-L-asparagine	458.15	
1602-97-7	Hexadecylammonium chloride	451.15	
16021-08-2	rel-(4aR,8aR)-Octahydro-2(1H)-naphthalenone	279.15	513.15
160232-08-6	1,1-Dimethylethyl N-[(1S,2R)-2-hydroxy-3-[(2-methylpropyl)amino]-1-(phenylmethyl)propyl]carbamate	418.15	
16028-14-1	Thiazolium, 3-[(4-amino-2-methyl-5-pyrimidinyl)methyl]-4-methyl-5-[2-(phosphonooxy)ethyl]-, chloride, hydrochloride (1:1:1)	466.15	
16029-98-4	Trimethylsilyl iodide		379.65
1603-08-3	Acetamide, 2-[bis(2-chloroethyl)amino]-N,N-diethyl-, hydrochloride (1:1)	385.65	
1603-40-3	2-Amino-3-methylpyridine	306.65	495.15
1603-41-4	2-Amino-5-methylpyridine	349.65	500.15
1603-53-8	1,1′-Dodecylidenebis[benzene]	281.45	
1603-79-8	Ethyl benzoylformate		529.65
1603-84-5	Carbon oxide selenide (COSe)	150.95	250.25
1603-91-4	2-Amino-4-methylthiazole	318.65	
16032-41-0	N,N-Dimethyl-4-(2-quinolinyl)benzenamine	449.85	
16033-21-9	1-Methyl-3-phenyl-1-triazene	311.4	
16034-77-8	Iocetamic acid	497.65	
16036-86-5	4-Piperidinecarboxylic acid, 1-(3-oxobutyl)-4-phenyl-, ethyl ester, hydrochloride (1:1)	421.65	
1604-02-0	1-Propylcyclopentanol	235.65	448.6
1604-11-1	Dimethyl methylsuccinate		469.15
1604-28-0	6-Methylhepta-3,5-dien-2-one		359.65
1604-29-1	1,1-Dimethylpropargyl acetate		406.4
1604-42-8	1,6-Dinitro-9,10-anthracenedione	531.15	
1604-43-9	1,7-Dinitro-9,10-anthracenedione	553.15	
16042-21-0	2-Methyl-2-(methylthio)propanal		414.15
16045-92-4	Chlorosuccinic acid	424.15	
16048-96-7	Copper(II) salicylate	548.15	
1605-06-7	cis-2,3-Diphenylaziridine	355.65	
1605-18-1	1,4-Diisopropenylbenzene	336.95	
1605-53-4	Diethylphenylphosphine	318.15	
1605-54-5	Methylbis(trifluoromethyl)phosphine	168.15	310.65
1605-72-7	Dichlorocarbene	159.15	253.15
1605-74-9	Quinolinium, 1,2-dimethyl-, methyl sulfate (1:1)	424.65	
1605-89-6	Bolasterone	437.15	
16050-65-0	4-Ethyl-1,2,4-triazolidine-3,5-dione	468.65	
16051-77-7	Isosorbide mononitrate	362.65	
16052-42-9	(-)-Menthyl chloride	271.35	
16055-33-7	Quinolinium, 1-ethyl-2-[(3-methyl-2(3H)-benzothiazolylidene)methyl]-, iodide (1:1)	553.15	
16055-80-4	Benzenebutanoic acid, α,2-diamino-γ-oxo-, (αS)-, sulfate (1:1)	469.15	
16056-11-4	Phenyltrimethylammonium bromide	487.15	
1606-01-5	N,N-Diethylglycine	401.15	
1606-67-3	1-Aminopyrene	389.15	
1606-76-4	2-Nitrothiazole	349.15	
16062-88-7	Monobutyl fumarate	413.15	353.65
16063-69-7	2,4,6-Trichloropyridine	306.15	491.15
16063-70-0	2,3,5-Trichloropyridine	322.15	492.15
16064-11-2	N-(3,4-Dihydro-4-oxo-6-quinazolinyl)acetamide	606.15	
16064-14-5	6-Chloro-4(3H)-quinazolinone	537.15	
16065-83-1	Cr3+	1743.15	
16066-09-4	1,1,1,3,5,7,7,7-Octamethyltetrasiloxane		443.15
16069-15-1	N,N′-1,6-Hexanediylbis[2-methyl-2-propenamide]	388.4	
16069-32-2	[1,1′-Biphenyl]-2,4-diamine	379.15	
16069-36-6	Dicyclohexano-18-crown-6	354.9	
1607-57-4	1-Bromo-1,2,2-triphenylethene	388.15	
1607-68-7	N-(4-Piperidinyl)phenylacetamide	402.65	
16078-30-1	1-Acetylindoline	375.65	
16078-34-5	1-(2,3-Dihydro-1H-indol-5-yl)ethanone	343.9	
16078-71-0	1H-Pyrazole-4-carboxylic acid, 5-amino-1-phenyl-, ethyl ester	377.15	
16078-88-9	1-(Ethylphenylamino)-2-propanol	397.15	372.15
160790-03-4	1-Methylethyl 1-[(4-nitrophenyl)sulfonyl]cyclobutanecarboxylate	338.65	
1608-14-6	N1,N1,N2,N2-Tetramethylethanediamide	489.15	
1608-72-6	Ethanol, 1-ethoxy-, 1-acetate		402.15
16082-59-0	N-(Quinolin-8-yl)benzenesulfonamide	405.9	
16082-71-6	2-(3-Chlorophenyl)-1H-isoindole-1,3(2H)-dione	435.15	
160848-22-6	Phenyl-C61-butyric acid methyl ester	565.15	
16088-62-3	(2S)-2-Methyloxirane	443.65	310.15
1609-06-9	N′-Cyano-N,N-dimethylguanidine	449.65	
1609-07-0	N-Cyano-N′-methylguanidine	364.65	
1609-19-4	Chlorodiethylsilane	373.15	
1609-21-8	Decylpyridinium chloride	311.65	
1609-47-8	Diethyl dicarbonate		366.65
1609-66-1	4-(N-Propionylaniline)piperidine	357.15	
1609-86-5	tert-Butyl isocyanate	358.65	358.15
1609-93-4	(2Z)-3-Chloro-2-propenoic acid	336.65	
16091-18-2	Dioctyltin maleate	370.15	
16091-26-2	N-(3-Aminophenyl)benzamide	396.15	
16094-31-8	5-(1,1-Dimethylethyl)-2-hydroxybenzoic acid	424.15	
16096-32-5	4-Methylindole	278.15	540.15
16096-98-3	(4R,5R)-1,2-Dithiane-4,5-diol	387.15	
16099-54-0	N,N′-1,4-Phenylenebis[octadecanamide]	438.15	
1610-18-0	Prometon	364.65	
1610-29-3	2-Methyl-2-penten-1-ol		440.65
1610-39-5	Dodecahydrotriphenylene	505.65	
1610-52-2	Pregnane-11,20-dione, 3-(acetyloxy)-, (3α,5β)-	404.9	
16101-08-9	9-Methoxy-1,5-dimethyl-6H-pyrido[4,3-b]carbazole	565.15	
16105-78-5	Ethylamphetamine hydrochloride	418.65	
161050-58-4	Methoxyfenozide	477.65	
16106-59-5	4,5-Dimethyl-1-hexene		382.15
16108-50-2	1-(2-Hydroxy-4,6-dimethylphenyl)ethanone	330.65	
1611-03-6	3,5-Bis(1,1-dimethylethyl)-4-hydroxybenzeneacetic acid	431.65	
1611-31-0	Diisopropyl phosphate	307.15	
1611-56-9	11-Bromo-1-undecanol	318.15	
1611-83-2	N-Phenylmethacrylamide	357.65	
1611-92-3	3,5-Dibromotoluene	474.65	
16110-09-1	2,5-Dichloropyridine	333.65	
16110-51-3	Cromolyn	514.65	
16110-98-8	(2Z)-2-Phenyl-2-butenedioic acid	460.4	
16112-60-0	4-Ethyl-2-oxazolidinone		395.65
16118-36-8	Methionine, methyl ester, hydrochloride (1:1)	383.15	
16118-49-3	Carbetamide	392.15	
1612-64-2	2-(4-Dimethylaminostyryl)quinoline	448.15	
1612-65-3	2-Methyl-1,2,3,4-tetrahydroisoquinoline	395.65	
1612-76-6	2-Amino-5-phenyl-1,3,4-oxadiazole	515.15	
16121-39-4	1,5-Diphenyl-1-penten-4-yn-3-one	342.65	
161265-03-8	1,1′-(9,9-Dimethyl-9H-xanthene-4,5-diyl)bis[1,1-diphenylphosphine]	502.65	
1613-37-2	Quinoline N-oxide	474.9	
1613-51-0	Tetrahydrothiopyran	292.15	414.95
1613-66-7	Dichlorodiphenylgermane	282.15	
1613-76-9	N-Hydroxy-4-nitrobenzamide	409.15	
16131-53-6	4,4′-Tetrathiobis[morpholine]	392.15	
16133-26-9	3-Mercaptopyridine	352.15	
16133-49-6	5-Methoxy-2-nitrobenzenamine	404.15	
16136-58-6	1-Methyl-1H-indole-2-carboxylic acid	487.15	
16136-84-8	1-Propene, 1-chloro-, (1Z)-	138.35	305.95
16136-85-9	1-Propene, 1-chloro-, (1E)-	174.15	310.55
16139-18-7	Aminoguanidine hydrochloride	434.15	
1614-12-6	1-Aminobenzotriazole	357.15	
1614-20-6	Nifurprazine	538.15	
1614-34-2	N-[3-[(Aminothioxomethyl)amino]phenyl]acetamide	467.65	
1614-57-9	5H-Dibenzo[a,d]cycloheptene-5-propanamine, N,N-dimethyl-, hydrochloride (1:1)	465.15	
1614-82-0	1,4,5,8-Tetrahydro-2,7-dimethoxynaphthalene	340.65	
16142-27-1	3-Morpholinosydnonimine hydrochloride	445.15	
16143-89-8	α-(Diphenylmethylene)-4-methoxybenzeneacetonitrile	422.15	
16144-91-5	1,2,3,4-Tetrahydro-1,4-methanonaphthalene-5,8-diol	449.65	
161462-35-7	1-Cyclopropyl-3-[2-(methylthio)-4-(trifluoromethyl)phenyl]-1,3-propanedione	337.15	
16148-06-4	1,3-Dihydro-1-[1-(phenylmethyl)-4-piperidinyl]-2H-benzimidazol-2-one	434.55	
1615-02-7	4-Chlorocinnamic acid	521.15	
1615-14-1	Imidazole-1-ethanol	312.15	
1615-15-2	2-Methyl-1H-imidazole-1-ethanol	337.15	
1615-70-9	2,4-Pentadienenitrile	213.15	409.65
1615-75-4	1-Chloro-1-fluoroethane		289.35
1615-80-1	1,2-Diethylhydrazine		358.65
16150-44-0	1,3-Bis(2-acetyl-3-hydroxyphenoxy)-2-propanol	441.15	
16150-45-1	2,2′-Diethyl 5,5′-[(2-hydroxy-1,3-propanediyl)bis(oxy)]bis[4-oxo-4H-1-benzopyran-2-carboxylate]	454.15	
16154-78-2	Pyrazidole	535.15	
16155-94-5	2-p-Tolyl-5-methylbenzoxazole	408.65	
16156-59-5	Phenyl methanesulfonate	334.65	
16156-90-4	1-(2-Iodoethyl)-2-methyl-5-nitroimidazole	352.15	
161599-46-8	Cytidine, 5′-deoxy-5-fluoro-, 2′,3′-diacetate	355.15	
1616-88-2	Ethanol, 2-methoxy-, 1-carbamate	319.95	
161611-74-1	2,2,4-Trifluoro-5-(trifluoromethoxy)-1,3-dioxole		307.15
16165-33-6	N-Undecyl-1-undecanamine	316.65	
1617-17-0	Propanenitrile, 2-chloro-	327.65	394.15
1617-18-1	Ethyl vinylacetate		392.15
1617-37-4	(2Z)-2-Methyl-2-pentenoic acid	231.15	
1617-68-1	Lupeol acetate	335.15	
1617-90-9	Vincamine	505.65	
1618-26-4	2,4-Dithiapentane	421.15	421.15
16182-15-3	Benzenesulfonic acid, 2,4,6-trimethyl-, hydrazide	403.15	
16184-89-7	4′-Bromo-2,2,2-trifluoroacetophenone	302.4	
16187-90-9	β-Iminobenzenepropanenitrile	362.65	
16188-55-9	4-(Methylthio)benzeneacetic acid	366.15	
16188-57-1	2-Iodo-4-methylphenol	308.15	
1619-34-7	(±)-3-Quinuclidinol	494.15	
1619-56-3	Ethyl 2-cyano-2-ethylbutanoate		487.65
1619-57-4	Ethyl 2,2-diethyl-3-oxobutanoate		489.15
1619-62-1	Propanedioic acid, 2,2-dimethyl-, 1,3-diethyl ester	242.75	470.15
16191-84-7	1-Chloro-4-[(2-chloroethyl)sulfonyl]benzene	371.65	
16196-82-0	1-[(5α,7α)-4,5-Epoxy-18,19-dihydro-3,6-dimethoxy-17-methyl-6,14-ethenomorphinan-7-yl]ethanone	406.15	
16199-74-9	α-Cyclohexyl-3-thiopheneacetic acid	401.15	
1620-14-0	1-(Diethylamino)-2-propanone		342.75
1620-19-5	Benzenaminium, 3-hydroxy-N,N,N-trimethyl-, bromide (1:1)	480.15	
1620-30-0	α,α-Diphenyl-4-pyridinemethanol	476.15	
1620-48-0	2,6-Bis(1,1-dimethylethyl)-4-(mercaptomethyl)phenol	305.15	
1620-53-7	1-Phenyl-2-(2-pyridinyl)ethanone	332.15	
1620-64-0	Ethyl 3,5-bis(1,1-dimethylethyl)-4-hydroxybenzoate	378.15	
1620-68-4	2,6-Bis[(2-hydroxy-5-methylphenyl)methyl]-4-methylphenol	488.15	
1620-75-3	6-Methyl-2-pyridinecarbonitrile	346.15	
1620-77-5	5-Methyl-2-pyridinecarbonitrile	346.15	
1620-93-5	4,4′-[Thiobis(methylene)]bis[2,6-bis(1,1-dimethylethyl)phenol	414.15	
1620-98-0	3,5-Di-tert-butyl-4-hydroxybenzaldehyde	462.15	
16200-53-6	Hexahydro-2,5-methanopentalene-3a(1H)-carboxylic acid	377.15	
16201-96-0	1-[4-(2-Phenyldiazenyl)phenyl]-1H-pyrrole-2,5-dione	442.15	
16203-97-7	1,8,9-Anthracenetriol, 1,8,9-triacetate	482.15	
16208-51-8	Disodium 2,2′-dithiobis(ethanesulfonate)	546.15	
1621-90-5	4-Pyridinamine, N-hydroxy-, 1-oxide	510.15	
16212-08-1	(E)-Styryl p-tolyl sulfone	394.15	393.9
16212-28-5	2,3,3-Trichloro-2-propenenitrile	292.15	
16215-14-8	3-(Methylsulfonyl)-1-propene	360.65	
16217-48-4	1,4-Dimethyl 2-(1-piperidinyl)butanedioate	310.65	
16219-75-3	Ethylidenenorbornene	193.15	340.15
16219-98-0	N-Methyl-N-nitroso-2-pyridinamine		381.15
1622-32-8	2-Chloroethanesulfonyl chloride	276.15	374.65
1622-54-4	2-[2-(2-Thienyl)ethyl]benzoic acid	383.65	
1622-57-7	1-Methyl-1H-benzimidazol-2-amine	474.65	
1622-61-3	Clonazepam	510.65	
1622-62-4	Flunitrazepam	439.65	
1622-67-9	1,5-Dihydro-8-methyl-3-(1-methylethyl)[1,3]dioxepino[5,6-c]pyridin-9-ol	437.4	
1622-79-3	Melperone hydrochloride	483.15	
162204-20-8	Cytidine, 5′-deoxy-5-fluoro-N-[(pentyloxy)carbonyl]-, 2′,3′-diacetate	323.65	
16225-26-6	3,5-Bis(1,1-dimethylethyl)benzoic acid	445.95	
16227-12-6	4-Phenyl-4H-1,2,4-triazole	395.15	
16227-13-7	4-(Phenylmethyl)-4H-1,2,4-triazole	381.65	
1623-05-8	1,1,1,2,2,3,3-Heptafluoro-3-[(1,2,2-trifluoroethenyl)oxy]propane		308.65
1623-08-1	Dibenzyl phosphate	352.15	
1623-14-9	Monoethyl phosphate	315.15	
1623-88-7	5-(Chloromethyl)-2-furancarboxaldehyde	310.15	
1623-93-4	[1,1′-Biphenyl]-4-sulfonyl chloride	387.65	
1623-99-0	Sodium, phenyl-	378.15	
16230-35-6	N,N′-(Ethoxymethylsilylene)bis[N-methylbenzamide]	260.15	
162320-67-4	Diflovidazin	461.15	
162359-56-0	Fingolimod hydrochloride	380.65	
16239-11-5	2-Hexen-3-ol		428.15
16239-18-2	1,6-Dibromo-2-naphthalenol	379.15	
1624-01-7	Tetrakis(dimethylamino)silane	289.15	
1624-02-8	Chromic acid (H2CrO4), bis(triphenylsilyl) ester	428.65	
1624-62-0	(+)-Estrone 3-methyl ether	437.65	
162401-32-3	Roflumilast	430.4	
16244-15-8	1,4-Dihydrocyclopent[b]indol-3(2H)-one	502.15	
16245-79-7	4-Octylbenzenamine	293.15	583.15
16245-97-9	Stearyl glycidyl ether	311.65	
16248-90-1	Bis(diethyldithiocarbamato)tin	381.65	
1625-39-4	6α-Methylhydrocortisone	478.65	
1625-91-8	4,4′-Bis(1,1-dimethylethyl)-1,1′-biphenyl	395.15	599.15
162537-11-3	N-(Methoxycarbonyl)-3-methyl-L-valine	381.65	
16255-48-4	(2R,3R)-2-[(2,2-Dichloroacetyl)amino]-3-hydroxy-3-(4-nitrophenyl)propyl octadecanoate	370.65	
16256-41-0	7,14-Diazadispiro[5.1.5.2]pentadecan-15-one	492.15	
16256-42-1	2,2,5,5-Tetramethyl-4-imidazolidinone	442.65	
1626-24-0	Chlorotriphenylgermane	390.15	
16260-26-7	Octyl myristate		509.15
16260-27-8	Zinc myristate	405.15	
16264-05-4	1,4-Bis(4-nitrophenyl)piperazine	531.9	
16265-04-6	2-Chloro-1H-imidazole	435.65	
162650-77-3	Ethaboxam	459.15	
16268-62-5	Pentamethylmelamine	374.15	
16269-01-5	1-[[4,6-Bis(dimethylamino)-1,3,5-triazin-2-yl]methylamino]methanol	393.15	
1627-73-2	2-(Phenylmethylene)hydrazinecarbothioamide	456.15	
16271-33-3	2,4-Dichlorobenzenesulfonyl chloride	329.15	
16273-37-3	3-Chloromandelic acid	388.4	
16275-44-8	N-(2,5-Dihydro-5-oxo-2-furanyl)acetamide	388.15	
1628-11-1	Dichloro(3-chloro-2-methylpropyl)methylsilane		469.15
1628-29-1	1-(10H-Phenothiazin-10-yl)ethanone	471.15	
1628-58-6	4-[2-(2-Benzothiazolyl)ethenyl]-N,N-dimethylbenzenamine	480.15	
1628-89-3	2-Methoxypyridine		415.15
16286-69-4	Cetiedil citrate	388.15	
1629-58-9	1-Penten-3-one	333.15	376.15
16291-96-6	Charcoal		4473.15
16292-88-9	3-Methoxy-4-nitroaniline	432.15	