CAS	name	Tm	Tb
1304-28-5	Barium oxide	2196.15	2273.15
1304-29-6	Barium peroxide	723.15	
1304-54-7	Beryllium nitride (Be3N2)	2473.15	
1304-56-9	Beryllium oxide	2803.15	4173.15
1304-76-3	Bismuth oxide (Bi2O3)	543.15	
1304-82-1	Bismuth telluride	808.15	1445.15
1304-85-4	Bismuth subnitrate	533.15	
13040-03-4	(+)-cis-Verbenol	343.65	
13040-17-0	Decanoic acid, zinc salt (2:1)	403.15	
130405-40-2	(-)-Catechin gallate	522.65	
13042-02-9	2-Hexenedinitrile	347.15	
13042-18-7	Fendiline		481.15
13042-38-1	Isosorbide diacetate	333.65	
13042-39-2	Isosorbide 2-acetate	351.15	
13045-94-8	D-Melphalan	454.9	
13047-13-7	Dimezone S	395.7	
13048-33-4	1,6-Hexanediol diacrylate		434.65
13049-13-3	3,3′,5,5′-Tetrachloro-4,4′-biphenyldiol	508.15	
1305-62-0	Calcium hydroxide	853.15	
1305-78-8	Calcium oxide	2845.15	3123.15
1305-79-9	Calcium peroxide	473.15	
1305-99-3	Calcium phosphide	1873.15	
13050-38-9	α-Hydroxy-α-phenylbenzeneacetic acid hydrazide	445.15	
13050-47-0	3-Methylbenzohydrazide	370.15	
13051-01-9	Benzoic acid, 2-hydroxy-, sodium salt compd. with 2-(1,2,3,6-tetrahydro-3-hydroxy-1-methyl-6-oxo-5H-indol-5-ylidene)hydrazinecarboxamide (1:1:1)	469.9	
13052-11-4	1-Propanaminium, 2-hydroxy-N,N,N-trimethyl-3-[(2-methyl-1-oxo-2-propen-1-yl)oxy]-, chloride (1:1)	449.65	
13052-13-6	1-Propanaminium, 2-hydroxy-N,N,N-trimethyl-3-[(1-oxo-2-propen-1-yl)oxy]-, chloride (1:1)	399.15	
13053-81-1	N-2-Thienylacetamide	428.65	
13055-06-6	N-(Carboxymethyl)-N-(hexahydro-2,4,6-trioxo-5-pyrimidinyl)glycine	513.15	
13055-63-5	2-Methyl-5-(trifluoromethyl)benzoic acid	396.9	
13055-82-8	1H-Purine-2,6-dione, 7-[3-[[2-(3,5-dihydroxyphenyl)-2-hydroxyethyl]amino]propyl]-3,7-dihydro-1,3-dimethyl-, hydrochloride (1:1)	522.65	
13057-17-5	Bromomethyl methyl ether		360.15
13057-50-6	1,1′-[2,2-Bis[[(1-oxododecyl)oxy]methyl]-1,3-propanediyl] didodecanoate	326.95	
13057-72-2	7-Hydroxyisoflavone	404.15	
13058-16-7	N-(Benzyloxycarbonyl)-DL-tryptophan	440.15	
13059-67-1	Trimethylantimony dichloride	501.65	
1306-06-5	Hydroxylapatite (Ca5(OH)(PO4)3)	1773.15	
1306-19-0	Cadmium oxide	1503.15	
1306-23-6	Cadmium sulfide	1253.15	
1306-24-7	Cadmium selenide	1531.15	
1306-25-8	Cadmium telluride	1373.15	
13060-14-5	(+)-Yangambin	378.65	
13060-68-9	2,2′-[1,4-Phenylenebis(methylidynenitrilo)]bis[phenol]	486.15	
130607-26-0	(5S,7R,8S,9R)-8,9-Dihydroxy-7-(hydroxymethyl)-6-oxa-1,3-diazaspiro[4.4]nonane-2,4-dione	464.15	
13061-28-4	1-(2,4,5-Trichlorophenyl)ethanone	320.15	
13062-76-5	Phenol, 4-[2-(methylamino)ethyl]-, hydrochloride (1:1)	419.15	
13062-82-3	Benzenemethanol, α-(1-aminoethyl)-4-hydroxy-, hydrochloride (1:1)	477.15	
13062-95-8	Benzeneethanamine, 3-methoxy-β-methyl-, hydrochloride (1:1)	425.65	
13063-04-2	Nitidine, chloride	557.65	
13063-43-9	2,2-Dichloropropanedinitrile		370.15
13063-60-0	4-Octylmorpholine		508.15
13064-83-0	trans-4-Methylcyclohexanecarboxylic acid	385.15	
13065-83-3	3-Amino-4-methyl-N-phenylbenzenesulfonamide	408.15	
13067-19-1	N-1,3-Benzodioxol-5-ylacetamide	408.65	
13067-93-1	Cyanofenphos	356.15	
130688-32-3	3-Amino-5,6,7,8-tetrahydro-4-isoquinolinecarboxamide	492.65	
130693-82-2	Dorzolamide hydrochloride	557.15	
1307-96-6	Cobalt oxide (CoO)	2208.15	
13070-01-4	2-Piperidinethione	368.15	
13070-07-0	1-Methyl-2-piperidinethione	310.65	
13071-11-9	(+)-Propranolol hydrochloride	465.15	
13071-60-8	1,2-Di-O-hexadecylglycerol	327.15	
13071-79-9	Terbufos	244.15	
13072-69-0	1-Adamantylurea	432.65	
13073-35-3	L-Ethionine	546.15	
13074-29-8	Sodium N-ethyl-N-phenyldithiocarbamate	372.65	
13074-31-2	(±)-Tetrahydropapaverine	415.15	
13074-39-0	2-Aminoadamantane	506.15	
13076-17-0	D-Lactide	370.15	
13076-19-2	meso-Lactide	325.95	
13076-29-4	1,4-Dimethoxyanthracene	410.15	
13078-04-1	(±)-Anabasine	366.65	
13078-30-3	N-Phenyl-1,2,3,4-thiatriazol-5-amine	415.65	
13078-75-6	Benzeneethanamine, 3,4-dimethoxy-α-methyl-, hydrochloride (1:1)	420.15	
13078-76-7	Benzeneethanamine, 3,4-dimethoxy-N-methyl-, hydrochloride (1:1)	440.15	
13078-80-3	2-(2-Chlorophenyl)ethylamine	418.15	
13079-20-4	Leucinamide	379.65	
1308-04-9	Cobalt oxide (Co2O3)	1168.15	
1308-38-9	Chromia	2708.15	4273.15
1308-96-9	Europium oxide	2513.15	
13080-22-3	2-[3-(Acetylethylamino)-2,4,6-triiodophenoxy]acetic acid	386.65	
13080-43-8	2-Naphthalenol, 2-propanoate	322.65	
13080-86-9	2,2-Bis[4-(4-aminophenoxy)phenyl]propane	400.15	
13080-89-2	4,4′-[Sulfonylbis(4,1-phenyleneoxy)]bis[benzenamine]	462.65	
13080-90-5	5-Norbornen-2-ol	378.15	
13081-17-9	4-Chloro-2-cyclohexylphenol	322.65	444.65
13084-29-2	2-(4-Chlorophenyl)-4,5-dihydrothiazole	323.65	
13085-08-0	Mazipredone	472.15	
13088-64-7	N-(Hydroxymethyl)caprolactam	338.65	
13089-18-4	Phenyl N-acetyl-α-D-galactosaminide	521.15	
13089-48-0	N-Benzoylcytidine	505.15	
1309-36-0	Pyrite	1016.15	
1309-37-1	Iron oxide (Fe2O3)	838.15	
1309-38-2	Magnetite (Fe3O4)	1868.15	
1309-42-8	Magnesium hydroxide	623.15	
1309-48-4	Magnesium oxide	3073.15	3873.15
1309-60-0	Lead dioxide	563.15	
1309-64-4	Antimony trioxide	928.15	1698.15
13091-23-1	4-Chloro-3-nitropyridine	318.15	
13091-80-0	5-Chloro-7-nitro-1H-benzotriazole	511.65	
130929-57-6	Entacapone	435.65	
13093-05-5	N1,N6-Diethyl-1,6-hexanediamine	532.65	
13093-88-4	Perimetazine	410.65	
13095-41-5	2-Naphthalenol, 2-(dihydrogen phosphate)	445.65	
13095-73-3	4-Mercaptobutanoic acid	382.15	
13097-08-0	N-(4-Oxo-2-thioxo-3-thiazolidinyl)-4-pyridinecarboxamide	447.15	
13097-10-4	3-(Phenylamino)-2-thioxo-4-thiazolidinone	403.15	
13099-35-9	17-Bromoheptadecanoic acid	347.15	
131-01-1	Deserpidine	503.65	
131-03-3	Rauwolscine	516.65	
131-06-6	1-β-D-Arabinofuranosyl-5-fluorouracil	460.65	
131-09-9	2-Chloroanthraquinone	484.15	
131-11-3	Dimethyl phthalate	278.65	556.85
131-16-8	Dipropyl phthalate		590.65
131-17-9	Diallyl phthalate	203.15	434.65
131-18-0	Dipentyl phthalate		615.15
131-28-2	Narceine	411.15	
131-48-6	Acetylneuraminic acid	456.65	
131-52-2	Sodium pentachlorophenolate	418.65	
131-53-3	2,2′-Dihydroxy-4-methoxybenzophenone	341.15	
131-54-4	2,2′-Dihydroxy-4,4′-dimethoxybenzophenone	412.65	
131-55-5	2,2′,4,4′-Tetrahydroxybenzophenone	470.15	627.15
131-56-6	2,4-Dihydroxybenzophenone	415.15	
131-57-7	2-Hydroxy-4-methoxybenzophenone	339.15	428.15
131-58-8	2-Methylbenzophenone		581.15
131-62-4	1-Hydroxy-1,2-benziodoxol-3(1H)-one	533.15	
131-67-9	1,2-Benzenedicarboxylic acid, 1-(1-ethyl-1-methyl-2-propyn-1-yl) ester	370.15	
131-69-1	Phthalylsulfacetamide	469.15	
131-70-4	Monobutyl phthalate	346.65	
131-73-7	Dipicrylamine	517.15	
131-74-8	Ammonium picrate	552.65	696.15
131-79-3	1-[2-(2-Methylphenyl)diazenyl]-2-naphthalenamine	398.65	
131-89-5	Dinex	380.15	
131-90-8	N-Butyl-2-hydroxy[1,1′-biphenyl]-3-carboxamide	344.15	
131-91-9	1-Nitroso-2-naphthol	382.65	
1310-32-3	Iron selenide (FeSe)	1343.15	
1310-43-6	Iron phosphide (Fe2P)	1693.15	
1310-53-8	Germanium oxide (GeO2)	1388.15	
1310-58-3	Potassium hydroxide	653.15	1600.15
1310-65-2	Lithium hydroxide	723.15	
1310-66-3	Lithium hydroxide, monohydrate	723.15	
1310-73-2	Sodium hydroxide	596.15	1661.15
1310-82-3	Rubidium hydroxide	574.15	
13100-46-4	β-D-Glucopyranose, 1,2,3,4-tetraacetate	401.65	
13101-26-3	N-Cyano-N′-(hydroxymethyl)guanidine	392.65	
13101-54-7	Erlose	378.15	
13103-75-8	Pyridine-2-azo-p-dimethylaniline	415.65	
13103-80-5	3′-Hydroxypropiophenone	355.15	
13104-21-7	Bromfenvinphos-methyl	339.4	
13106-53-1	Pyridinium, 1-hexadecyl-4-methyl-, chloride (1:1)	348.9	
13107-00-1	Diallyldiethylammonium chloride	461.65	
13108-19-5	10-Aminodecanoic acid	450.15	
13110-37-7	Pentyl 4-aminobenzoate	325.15	
13110-96-8	5-Acetylsalicylic acid	489.65	
13111-57-4	ψ-Tectorigenin	514.65	
13114-62-0	N-2-Naphthalenylurea	492.15	
13114-65-3	N-3-Pyridinylurea	451.65	
13114-72-2	Akardite II	446.15	
13114-87-9	(3-Trifluoromethylphenyl)urea	378.15	
13115-28-1	3-Nitro-2-naphthalenamine	359.65	
13115-71-4	Glycyl-L-glutamine	475.65	
13116-53-5	1,2,2,3-Tetrachloropropane		438.15
13117-94-7	2-(1,1-Dimethylethyl)-6-methylbenzenamine		510.65
131179-95-8	Efaproxiral	411.65	
13118-08-6	Pyrrolidinium, 1,1′-hexamethylenebis[1-methyl-, diiodide	451.65	
13118-09-7	Pyrrolidinium, 1,1′-(1,6-hexanediyl)bis[1-methyl-, bromide (1:2)	501.65	
13118-94-0	1,3-Bis(4-nitrophenoxy)benzene	384.15	
13119-01-2	Phosphinic acid, bis(4-chlorophenyl)-	410.65	
1312-41-0	Indium antimonide	809.15	
1312-43-2	Indium oxide	2183.15	
1312-73-8	Potassium sulfide	1185.15	1185.15
13120-77-9	2-Methoxy-1-methyl-4-nitrobenzene	342.65	
13121-70-5	Cyhexatin	469.15	
13122-18-4	tert-Butyl peroxy-3,5,5-trimethylhexanoate	433.15	
13122-91-3	N-[(Phenylmethoxy)carbonyl]-L-phenylalanyl-L-phenylalanine	428.65	
13122-99-1	N-[(Phenylmethoxy)carbonyl]-L-phenylalanylglycine	424.65	
13123-00-7	N-[(Phenylmethoxy)carbonyl]-L-phenylalanyl-L-valine	418.65	
13124-17-9	2-(3,4-Dichlorophenyl)-2,4-dihydro-5-methyl-3H-pyrazol-3-one	437.15	
13124-18-0	(3,4-Dichlorophenyl)hydrazine	347.15	
13125-51-4	Diisothiocyanatodimethylsilane	291.15	490.65
13126-12-0	Nitric acid, rubidium salt (1:1)	586.15	
13127-18-9	Erythromycin A oxime	459.65	
13127-88-3	Phen-2,3,4,5,6-d5-ol-d	313.4	
13129-60-7	2-[(5-Chloropentyl)oxy]tetrahydro-2H-pyran	382.15	
1313-13-9	Manganese oxide (MnO2)	826.15	
1313-27-5	Molybdenum oxide (MoO3)	1068.15	1428.15
1313-59-3	Sodium oxide	1403.15	
1313-60-6	Sodium peroxide	733.15	
1313-82-2	Disodium sulfide	1208.15	
1313-84-4	Sodium sulfide nonahydrate	325.15	
1313-96-8	Niobium pentoxide	1758.15	
1313-99-1	Nickel monoxide	2228.15	
13132-25-7	4-(Trimethylsilyl)phenol	347.15	
13134-76-4	Methyl 3-hydroxybenzo[b]thiophene-2-carboxylate	380.15	
131341-86-1	Fludioxonil	472.95	
13137-64-9	Periplocin	497.15	
13138-45-9	Nickel nitrate	380.65	
13138-51-7	1,2,3,3-Tetrachlorobutane		363.15
13138-53-9	4-Nitro-1,2-benzenedicarboxamide	463.15	
13139-12-3	Carbonic acid, 1,1-dimethylethyl 2,5-dioxo-1-pyrrolidinyl ester	372.15	
13139-14-5	N-tert-Butoxycarbonyl-L-tryptophan	435.65	
13139-15-6	BOC-L-leucine	342.65	
13139-16-7	tert-Butoxycarbonyl-L-isoleucine	323.15	
13139-17-8	N-(Benzyloxycarbonyloxy)succinimide	352.15	
1314-13-2	Zinc oxide (ZnO)	2248.15	
1314-18-7	Strontium peroxide	488.15	
1314-20-1	Thorium oxide (ThO2)	3663.15	4673.15
1314-23-4	Zirconium dioxide	2873.15	
1314-24-5	Phosphorus oxide (P2O3)	296.95	448.55
1314-28-9	Rhenium oxide (ReO3)		887.15
1314-32-5	Thallium oxide (Tl2O3)	990.15	1169.15
1314-34-7	Vanadium oxide (V2O3)	2213.15	
1314-35-8	Tungsten oxide (WO3)	1745.15	
1314-36-9	Yttrium sesquioxide	2688.15	
1314-41-6	Lead oxide (Pb3O4)	773.15	
1314-56-3	Phosphorus pentoxide	835.15	
1314-61-0	Tantalum pentoxide	2148.15	
1314-62-1	Vanadium oxide (V2O5)	963.15	
1314-68-7	Rhenium oxide (Re2O7)	301.15	611.65
1314-80-3	Phosphorus sulfide (P2S5)	561.15	787.15
1314-84-7	Zinc phosphide	693.15	1373.15
1314-85-8	3,5,7-Trithia-1,2,4,6-tetraphosphatricyclo[2.2.1.02,6]heptane	445.65	680.65
1314-87-0	Lead sulfide (PbS)	1387.15	
1314-91-6	Lead telluride	1198.15	
1314-95-0	Tin sulfide (SnS)	1153.15	1503.15
1314-96-1	Strontium sulfide	2275.15	
1314-98-3	Zinc sulfide	1973.15	1458.15
13141-42-9	2-(2-Phenylethynyl)pyridine	352.15	
13141-45-2	(4-Phenyl-1-buten-3-yn-1-yl)benzene	368.9	
13142-74-0	N-(4-Methyl-2-nitrophenyl)urea	489.65	
13146-36-6	2,2-Dimethylpentanamide	367.15	
13147-86-9	Hexahydro-3-[(phenylmethyl)amino]-2H-azepin-2-one	349.65	
13148-56-6	4-Phenyl-N-(phenylmethylene)-2-thiazolamine	472.65	
13149-00-3	cis-1,2-Cyclohexanedicarboxylic anhydride	345.4	
1315-01-1	Tin sulfide (SnS2)	1143.15	
1315-05-5	Antimony selenide (Sb2Se3)	878.15	1305.05
1315-09-9	Zinc selenide	1788.15	
1315-11-3	Zinc telluride	1573.15	
13150-40-8	α,α-Dimethyl-1-piperidineethanol	328.65	
13153-11-2	Trimethylene sulfoxide	304.65	
13156-01-9	1-Cyclohexyl-3-azetidinol	352.65	
13156-95-1	2-Chloro-N-(2-phenylethyl)acetamide	340.15	
13157-47-6	N-(Hydroxymethyl)dodecanamide	383.65	
13159-80-3	N-[(4-Chlorophenyl)methyl]-4-pyridinamine	411.15	
13160-06-0	N-(3-Pyridyl)nicotinamide	456.15	
13160-07-1	N-2-Pyridinyl-3-pyridinecarboxamide	412.4	
13161-30-3	2-Hydroxypyridine N-oxide	423.15	
13162-05-5	N-Vinylformamide	289.15	
13163-73-0	(2S,5S)-2-Methyl-5-(1-methylethyl)cyclohexanone	300.15	
13164-03-9	Chalepensin	362.15	
13164-05-1	(2S)-2-[1-(Acetyloxy)-1-methylethyl]-6-(1,1-dimethyl-2-propen-1-yl)-2,3-dihydro-7H-furo[3,2-g][1]benzopyran-7-one	380.65	
13165-68-9	4-Chloro-N-sulfinylbenzenamine	309.15	
13165-78-1	2-Methoxybenzenesulfinic acid	317.65	
1317-33-5	Molybdenum disulfide	2648.15	
1317-35-7	Manganese oxide (Mn3O4)	1837.15	
1317-36-8	Lead oxide (PbO)	1161.15	1743.15
1317-37-9	Iron sulfide (FeS)	1467.15	
1317-38-0	Copper oxide (CuO)	1599.15	
1317-39-1	Copper oxide (Cu2O)	1508.15	
1317-42-6	Cobalt sulfide (CoS)	1455.15	
1317-60-8	Hematite (Fe2O3)	1838.15	
13170-23-5	Acetic acid, 1,1′-dianhydride with silicic acid (H4SiO4) bis(1,1-dimethylethyl) ester	269.15	
13171-00-1	Celestolide	350.7	
13171-18-1	Hexafluoroisopropyl methyl ether		323.4
13171-21-6	Phosphamidon	228.15	
13171-25-0	Trimetazidine dihydrochloride	499.65	
13172-31-1	Sulfur bromide (S2Br2)		284.15
13174-08-8	Benzeneethanamine, 3,4-dimethoxy-N-(1-methyl-2-phenylethyl)-, hydrochloride (1:1)	434.15	
13175-44-5	7-Octen-1-ol	368.15	368.15
13177-25-8	1-Fluoranthenamine	406.65	
13177-26-9	2-Fluoranthenamine	408.15	
13177-29-2	2-Nitrofluoranthene	425.15	
13177-32-7	8-Nitrofluoranthene	438.65	
13177-38-3	Cyclopentadienone	370.15	
13177-41-8	N-Octadecyl-N,N-dimethyl-3-ammonio-1-propanesulfonate	555.65	
13177-50-9	1-Docosanol, 1-(hydrogen sulfate), sodium salt (1:1)	472.65	
1318-00-9	Vermiculite (Mg0.33[Mg2-3(Al0-1Fe0-1)0-1](Si2.33-3.33Al0.67-1.67)(OH)2O10.4H2O)	1623.15	
1318-74-7	Kaolinite (Al2(OH)4(Si2O5))	853.15	
131802-69-2	β-Ethyl-β-hydroxybenzenepropanamide	374.65	
131807-57-3	Famoxadone	414.15	
13181-17-4	Bromofenoxim	469.65	
13181-50-5	N′-(4-Bromophenyl)-N,N-dimethylmethanimidamide	446.15	
13182-58-6	1,3,6,7-Tetrahydro-1,3,7-trimethyl-6-thioxo-2H-purin-2-one	521.15	
13182-81-5	1-(2-Chloroethyl)-2-methyl-5-nitroimidazole	351.15	
13182-82-6	Metronidazole acetate	347.15	
13182-87-1	Butanedioic acid, 1-[2-(2-methyl-5-nitro-1H-imidazol-1-yl)ethyl] ester	382.15	
13182-89-3	Metronidazole benzoate	373.15	
13183-70-5	1,4-Bis(trimethylsilyl)benzene	366.15	467.65
13183-79-4	5-Mercapto-1-methyltetrazole	399.15	
13184-27-5	Carbamoylaspartic acid	402.15	
13184-80-0	1,3-Propanediol, 2,2′-[oxybis(methylene)]bis[2-[(nitrooxy)methyl]-, 1,1′,3,3′-tetranitrate	345.65	
13185-09-6	3H-Indazol-3-one, 1,2-dihydro-1-(phenylmethyl)-, sodium salt (1:1)	440.65	
13185-22-3	Furazonal	504.65	
13185-53-0	1-Methyl-1,2-cyclohexanedicarboxylic acid	438.15	
131860-33-8	Azoxystrobin	389.15	
13189-00-9	Zinc methacrylate	523.15	
1319-46-6	White lead	673.15	
1319-77-3	Cresol		470.15
13190-34-6	(±)-Goitrin	323.15	
13190-50-6	[4-(Dimethylamino)phenyl]lithium	412.65	
13190-97-1	Solanesol	307.15	
13191-36-1	2,5-Dibromo-3-methylthiophene	404.15	
13194-48-4	Ethoprophos	260.15	
13194-68-8	4-Iodo-2-methylaniline	361.15	
13195-50-1	2-Bromo-5-nitrothiophene	318.65	509.15
13195-64-7	Diisopropyl malonate	387.15	
13195-76-1	Boric acid (H3BO3), tris(2-methylpropyl) ester		485.4
13195-79-4	2,2-Dibromo-1-(4-bromophenyl)ethanone	366.65	
13195-80-7	1,1-Dibromo-1-propene		398.15
131983-72-7	Triticonazole	413.15	
132-17-2	Benztropine mesylate	416.15	
132-18-3	Diafen	479.15	
132-19-4	3-Buten-2-amine, N,N-diethyl-4,4-di-2-thienyl-, hydrochloride (1:1)	425.65	
132-20-7	Pheniramine maleate	380.15	
132-27-4	Sodium o-phenylphenate	555.15	
132-32-1	3-Amino-9-ethylcarbazole	400.15	
132-53-6	2-Nitroso-1-naphthol	431.15	
132-60-5	2-Phenyl-4-quinolinecarboxylic acid	491.15	
132-63-8	Methyl N-(7-hydroxy-1-naphthalenyl)carbamate	377.15	
132-64-9	Dibenzofuran	359.65	560.15
132-65-0	Dibenzothiophene	370.15	605.65
132-66-1	1-Naphthylphthalamic acid	476.15	
132-69-4	Benzidamine hydrochloride	433.15	
132-75-2	1-Naphthaleneacetonitrile	305.65	
132-86-5	1,3-Dihydroxynaphthalene	396.65	
132-89-8	Chlorthenoxazine	419.65	
132-98-9	Penicillin V potassium	397.15	
1320-04-3	Naphthoic acid	451.15	
1320-37-2	Dichlorotetrafluoroethane		270.75
1320-50-9	Dimethylurea	374.65	
1320-51-0	(Hydroxyethyl)urea	366.65	
1320-67-8	Propylene glycol monomethyl ether		391.15
1320-98-5	4-Methylpentanol		425.15
13200-83-4	1-Formyl-L-proline	366.65	
13200-85-6	N-Formyl-L-phenylalanine	434.65	
13201-14-4	Dihydrocucurbitacin B	385.65	
13201-16-6	2-Methyl-2-(2,4,5-trichlorophenoxy)propanoic acid	365.65	
13201-46-2	2-Methyl-2-butenoic acid	331.15	
13205-46-4	4-(1-Methylethoxy)benzoic acid	434.15	
13205-48-6	4-(Methylthio)benzoic acid	467.65	
13205-49-7	4-(Ethylthio)benzoic acid	418.15	
13206-31-0	5,5-Dimethyl-2-(1-methylethyl)-4-thiazolidinecarboxylic acid	454.9	
13207-50-6	N-Methyl-2-phenylhydrazinecarbothioamide	446.15	
13209-15-9	α,α,α′,α′-Tetrabromo-o-xylene	388.65	
13209-41-1	(16α)-17,21-Dihydroxy-16-methylpregna-1,4,9(11)-triene-3,20-dione	502.65	
13209-79-5	(-)-Prantschimgin	412.15	
1321-12-6	Nitrotoluene	327.55	511.15
1321-16-0	Cyclohexenecarboxaldehyde		438.15
1321-38-6	Benzene, diisocyanatomethyl-	293.15	524.15
1321-40-0	Quinolinol	593.15	
1321-64-8	Pentachloronaphthalene	393.15	622.04
1321-65-9	Trichloronaphthalene	366.15	602.15
1321-67-1	Naphthol	375.15	
1321-74-0	Divinylbenzene	206.25	473.15
1321-89-7	Isodecanal		470.15
1321-94-4	Methylnaphthalene	307.15	513.15
13211-01-3	1-[1,1′-Biphenyl]-4-yl-1-butanone	367.15	
13211-15-9	Camphenilone	313.15	
132112-35-7	2-Piperidinecarboxamide, N-(2,6-dimethylphenyl)-1-propyl-, hydrochloride, hydrate (1:1:1), (2S)-	543.2	
13213-88-2	1,4-Dihydro-2H-3,1-benzoxazin-2-one	392.65	
13214-53-4	2-Oxo-1-imidazolidinecarbonyl chloride	424.65	
13214-66-9	Benzenebutanamine		396.65
13214-70-5	2,3-Dibromonaphthalene	413.15	
132182-92-4	1,1,1,2,2,3,4,5,5,5-Decafluoro-3-methoxy-4-(trifluoromethyl)pentane		372.15
1322-06-1	Pentylphenol	361.15	535.15
1322-14-1	Calcium undecylenate	419.15	
1322-20-9	Phenylphenol	395.15	
1322-23-2	Trivinylbenzene		336.65
1322-51-6	(Phenylmethyl)phenol	355.15	588.15
13220-57-0	Tryptanthrin	531.15	
132203-70-4	Cilnidipine	389.2	
13221-27-7	Trimethazone	412.65	
13222-26-9	2-Chloro-2-methylpropanoyl chloride		386.65
13224-94-7	3-O-Methyl-α-D-glucopyranose	438.15	
13224-99-2	4,6-O-Ethylidene-α-D-glucopyranose	453.65	
13225-10-0	α-D-Glucopyranoside, methyl, 2,3,4,6-tetranitrate	321.65	
13228-36-9	5-Methyl-2-phenylindole	487.65	
13228-39-2	1-Ethyl-2-phenyl-1H-indole	357.4	
132287-19-5	1H-Imidazole, 5-[2-(2-fluorophenyl)-2-phenylethyl]-, hydrochloride (1:1)	434.15	
1323-39-3	Propylene glycol monostearate	317.55	
1323-65-5	Dinonylphenol		593.15
1323-83-7	Glycerol distearate	347.65	
13230-03-0	2-Ethyl-4-nitroimidazole	434.15	
13230-04-1	1,2-Dimethyl-4-nitroimidazole	456.15	
13230-22-3	Ethyl 2-methyl-4-nitro-1H-imidazole-1-acetate	385.15	
13230-99-4	7,9-Dihydro-2H-purine-2,8(3H)-dione	603.15	
132304-38-2	N-(5-Propyl-1,3,4-thiadiazol-2-yl)-4-morpholineacetamide	413.15	
13231-90-8	Dichlorodiethylplumbane	493.15	
13232-00-3	N,N′-Dimethyl-N,N′-dinitromethanediamine	323.15	
13232-83-2	N-[1-Cyano-2-(4-hydroxy-3-methoxyphenyl)-1-methylethyl]acetamide	453.65	
132335-44-5	(S)-N,N-Dimethyl-3-(2-thienyl)-3-hydroxypropanamine	352.15	
13234-79-2	[1,1′-Biphenyl]-2-carboxamide	450.15	
132368-08-2	Tripchlorolide	530.15	
13237-73-5	1,3,5-Dioxaphosphorinane, 5-hydroxy-2,4,6-tris(1-methylethyl)-, 5-oxide	432.65	
13237-74-6	Phosphinic acid, (3-cyclohexen-1-ylhydroxymethyl)-, monosodium salt	509.15	
13238-84-1	2,5-Diethylpyrazine		460.65
13239-97-9	2-Thiocytidine	481.65	
13241-33-3	Neohesperidin	517.15	
13242-44-9	2-(Dimethylamino)ethanethiol hydrochloride	432.15	
13242-55-2	β-D-Glucopyranose, 1,6-anhydro-, 2,3,4-triacetate	383.15	
13243-65-7	2,3-Dibromo-1,4-naphthoquinone	489.65	
13244-35-4	2-Chloro-4-(methylsulfonyl)benzenamine	468.65	
13246-32-7	1,1′-(1,2-Phenylene)bis[1,1-dimethylarsine]		429.15
13249-58-6	2-Bromo-1,1-diphenylethene	322.65	
13250-95-8	1,3-Diethyl 2-[[(6-methyl-2-pyridinyl)amino]methylene]propanedioate	378.75	
13250-96-9	2-Methyl-5-hydroxy-6-ethoxycarbonyl-1,8-naphthyridine	545.65	
13250-97-0	nor-Nalidixic acid	552.15	