Tc	Pc	c0	c1	c2	name	inchikey
692	2230798.89805	0.634025168413529	0.869122132798291	2.26870449713141	butanedioic acid, dipropyl ester	SZHZCPHKDJWHNG-UHFFFAOYSA-N
714	1355602.10423	0.826413926225368	0.876842701004996	2.16817328752523	ethyl tetradecanoate	MMKRHZKQPFCLLS-UHFFFAOYSA-N
605	3771221.48314	0.405394952462728	0.847669460422622	2.58633884390768	DL-ethyl lactate	LZCLXQDLBQLTDK-UHFFFAOYSA-N
676	3831368.20846	0.720225241359368	0.820804111077828	1.07851109297634	(E)-1-propenylbenzene	QROGIFZRVHSFLM-QHHAFSJGSA-N
736	3399252.99798	0.635335688753094	0.874529738683762	2.19760513756126	methyl N-phenylcarbamate	IAGUPODHENSJEZ-UHFFFAOYSA-N
716.46401	4133985.39684	1.56685862536814	0.999963972960194	0.657641891583269	4-ethylphenol	HXDOZKJGKXYMEW-UHFFFAOYSA-N
552.1798	8164226.59941	0.502860043953969	0.879138600851617	0.924098219722747	carbon disulfide	QGJOPFRUJISHPQ-UHFFFAOYSA-N
687.02323	3123217.14964	1.37163065381987	0.999530665527171	0.537167397268491	trans-decahydronaphthalene	NNBZCPXTIHJBJL-MGCOHNPYSA-N
709.1666	3660686.69436	0.46457323687576	0.870106932520789	2.25549567824795	methyl 2-hydroxybenzoate	OSWPMRLSEDHDFF-UHFFFAOYSA-N
691	2515808.73194	0.659052249723795	0.904866407696412	1.85046368516575	rel-(1R,2R,4R)-1,7,7-trimethylbicyclo[2.2.1]heptan-2-yl acetate	KGEKLUUHTZCSIP-FOGDFJRCSA-N
405.430944692	11358075.1312	0.279439306454756	0.857556003867016	1.97889040247756	ammonia	QGZKDVFQNNGYKY-UHFFFAOYSA-N
814.376741379	7393433.28792	0	0.328980698815169	0.546230543234483	iodine	PNDPGZBMCMUPRI-UHFFFAOYSA-N
732	3352140.91016	0.555823188816022	0.812597192071589	1.51780279090667	2-(1-methylethyl)benzenamine	YKOLZVXSPGIIBJ-UHFFFAOYSA-N
731	5113849.5299	0.27224142319871	0.833545466922376	2.82725887209864	4-chlorophenol	WXNZTHHGJRFXKQ-UHFFFAOYSA-N
640.4	2693196.55015	0.324179940799833	0.828100721914688	2.94109499189016	2-butoxyethyl acetate	NQBXSWAWVZHKBZ-UHFFFAOYSA-N
720	1841728.83877	0.505437515314352	0.846920616453731	2.59925318199668	nonylbenzene	LIXVMPBOGDCSRM-UHFFFAOYSA-N
869	3104249.77709	0.681906669016136	0.898657059657695	1.77725069068029	2-methylanthracene	GYMFBYTZOGMSQJ-UHFFFAOYSA-N
731	2991514.43416	0.979991687274398	0.964034001220329	1.22242944086138	3,5-diethylphenol	LPCJHUPMQKSPDC-UHFFFAOYSA-N
718	4851119.46841	0.444812232808287	0.859884327785709	2.39821174216329	indoline	LPAGFVYQRIESJQ-UHFFFAOYSA-N
876	3354310.95302	1.083900199372	0.851049352225639	0.754494361426822	9,10-dihydrophenanthrene	XXPBFNVKTVJZKF-UHFFFAOYSA-N
617.35926	1035286.29283	0.140636441369218	0.790237110231891	3.71547365649123	decamethylcyclopentasiloxane	XMSXQFUHVRWGNA-UHFFFAOYSA-N
692	3873402.40374	1.08599589399119	0.999950851430111	0.802050040159802	1-bromo-3-methylbenzene	WJIFKOVZNJTSGO-UHFFFAOYSA-N
679	2944239.77473	0.707442450670248	0.870977104869033	1.29336201054892	1,2,3,5-tetramethylbenzene	BFIMMTCNYPIMRN-UHFFFAOYSA-N
747	3486116.3274	1.47683567152786	0.999130451004262	0.727431966885906	3,4,5-trimethylphenol	FDQQNNZKEJIHMS-UHFFFAOYSA-N
695.797410804	2796316.20993	1.27590467155459	0.999995819001842	0.861811262893426	1,5-diazabicyclo[4.3.0]non-5-ene	SGUVLZREKBPKCE-UHFFFAOYSA-N
580	3772508.66175	0.0338226969403229	0.00151523543019173	0.746422250329562	N1,N2-dimethylethane-1,2-diamine	KVKFRMCSXWQSNT-UHFFFAOYSA-N
653.0783754	4838487.76221	0	0.222790089262138	0.674195036662238	arsenic trichloride	OEYOHULQRFXULB-UHFFFAOYSA-N
462.4	3858784.97343	1.07269419151584	0.901178391682794	0.618115715993557	1,4-pentadiene	QYZLKGVUSQXAMU-UHFFFAOYSA-N
570	2601585.90119	1.06695203523632	0.850920985672829	0.798958626420384	(Z)-4-octene	IRUCBBFNLDIMIK-FPLPWBNLSA-N
599	3578701.82818	0.814820604320186	0.843038110011795	1.23435881277087	methyl 3-methoxypropanoate	BDJSOPWXYLFTNW-UHFFFAOYSA-N
364.02309	5265571.83924	0.158623686932992	0.814836131044789	2.68490882477662	sulfur tetrafluoride	QHMQWEPBXSHHLH-UHFFFAOYSA-N
663.4	1977979.91484	0.336298161785729	0.825829101282474	2.98469327416567	propyl octanoate	IDHBLVYDNJDWNO-UHFFFAOYSA-N
617	2902569.61385	1.48263607115375	0.999644362910642	0.697313070890853	2,5,8-trioxanonane	SBZXBUIDTXKZTM-UHFFFAOYSA-N
655	5415796.86048	0.438162413534035	0.850335962239799	2.54379477206599	1,5-diaminopentane	VHRGRCVQAFMJIZ-UHFFFAOYSA-N
719	4985709.25647	1.50032856469697	0.991339089301013	0.645587807659229	N-methylacetamide	OHLUUHNLEMFGTQ-UHFFFAOYSA-N
646.7	1792421.78409	1.28388290770456	0.997577886150806	0.926995323301179	4-methylundecane	KNMXZGDUJVOTOC-UHFFFAOYSA-N
428	4170948.58363	0.115774813125277	0.827905978120635	2.90557721836886	sulfuryl chloride fluoride	IXPAAHZTOUOJJM-UHFFFAOYSA-N
855.116089251	2937525.10137	0.39081719102952	0.828809275635308	2.92681426081795	1,3,5-trinitrobenzene	UATJOMSPNYCXIX-UHFFFAOYSA-N
724	1207682.0048	1.88913900574217	0.960992224178749	0.651695569423774	4,9-dipropyldodecane	SUVYZSWABJDNFR-UHFFFAOYSA-N
520.460187	2750505.25915	1.3605663513898	0.99975761508097	0.534981916400854	2,2-dimethylpentane	CXOWYJMDMMMMJO-UHFFFAOYSA-N
789	3193451.66571	0.737395320189604	0.957214533963978	1.27936762045081	benzene, 1-chloro-2-(trichloromethyl)-	MFHPYLFZSCSNST-UHFFFAOYSA-N
804	5515797.39239	1.17091986444096	0.99998611125049	0.75737715838156	2,4,6-trichlorophenol	LINPIYWFGCPVIE-UHFFFAOYSA-N
490.8	4678801.22481	0.314901312094764	0.900472847618055	1.8961392012856	1-chloro-1-propene	OWXJKYNZGFSVRC-UHFFFAOYSA-N
694	4253117.15341	1.90824315282862	0.676494299799628	0.393346008665493	1,3-dichloro-2-methylbenzene	DMEDNTFWIHCBRK-UHFFFAOYSA-N
666	3472919.56582	0.122817916786627	0.813127926548244	2.70683422719417	4-methylcyclohexanone	VGVHNLRUAMRIEW-UHFFFAOYSA-N
584.1851	8004861.83305	1.49582729396642	0.999557436097915	0.296548854004798	bromine	GDTBXPJZTBHREO-UHFFFAOYSA-N
393.92724	5942943.08974	0.280545321408613	0.85401613498818	1.59106747832673	1,2-propadiene	IYABWNGZIDDRAK-UHFFFAOYSA-N
705	4279647.5877	0.722863357493241	0.922764865644116	1.67779769154729	3-pyridinecarboxylic acid methyl ester	YNBADRVTZLEFNH-UHFFFAOYSA-N
804	2768155.56028	0.674014752630919	0.923086714870152	1.67487786783556	pentachloroethylbenzene	JBLPFPMLHWDSFR-UHFFFAOYSA-N
635	4377331.43568	0	0.331244415751123	0.72610427888935	(Z)-1,2-dibromoethene	UWTUEMKLYAGTNQ-UPHRSURJSA-N
531.7	3377800.57587	0.385148149086989	0.836273729569858	1.8561852400722	diethoxymethane	KLKFAASOGCDTDT-UHFFFAOYSA-N
700	2619141.75412	1.58985739831062	0.999743387327818	0.61513886675124	nonanenitrile	PLZZPPHAMDJOSR-UHFFFAOYSA-N
761	3627781.03326	0.59079448895796	0.923706197797191	1.66899719460165	1,2,3,5-tetrachlorobenzene	QZYNWJQFTJXIRN-UHFFFAOYSA-N
614	2283466.80369	0.884785305167369	0.881748422345208	1.13485059939942	1,1-dimethylpropyl butanoate	VTZSXMMBJHMLEE-UHFFFAOYSA-N
692	4443646.57515	0.610842258509143	0.832019707176081	1.19858238608181	benzaldehyde	HUMNYLRZRPPJDN-UHFFFAOYSA-N
647.5	2778524.96223	0.698186614055922	0.80866808211822	1.19146652777726	1-heptanethiol	VPIAKHNXCOTPAY-UHFFFAOYSA-N
540.596968	2901530.52949	1.2672988496364	0.999999057525429	0.609968211229949	3-ethylpentane	AORMDLNPRGXHHL-UHFFFAOYSA-N
592.3	3378540.95175	1.46272197455156	0.998546986014927	0.606382173472476	1-hexanamine	BMVXCPBXGZKUPN-UHFFFAOYSA-N
707	2295225.71392	2.28862195385672	0.395963658187771	0.516539799448474	2,4,6-trimethylphenol	BPRYUXCVCCNUFE-UHFFFAOYSA-N
675	3833646.85518	1.22067183288856	0.9264441953737	0.566378873137865	bromocyclohexane	AQNQQHJNRPDOQV-UHFFFAOYSA-N
788	3242599.183	0.501235571913443	0.00063793255885167	0.783671815268134	1,1-diethylurea	TUMNHQRORINJKE-UHFFFAOYSA-N
903	1775693.71282	0.826590043616697	0.889086055563059	2.02115398998487	1,5-diphenyl-3-(2-phenylethyl)-2-pentene	LEPFYNPJKPSWHQ-UHFFFAOYSA-N
610	4877032.9533	0.745139615912655	0.826635922735996	0.878281077618968	3-methylthiophene	QENGPZGAWFQWCZ-UHFFFAOYSA-N
635	4962143.31465	0.933480790920565	0.998933423403243	0.57029114325138	(E)-1,2-dibromoethene	UWTUEMKLYAGTNQ-OWOJBTEDSA-N
664	2595346.78743	1.27276419961762	0.999600884602223	1.00150282323832	di-n-propyl oxalate	HZHMMLIMOUNKCK-UHFFFAOYSA-N
685	2611067.8027	0.702276263404646	0.862371736605454	1.36834859554448	1-ethyl-2,4,6-trimethylbenzene	HYCOYJYBHKAKGQ-UHFFFAOYSA-N
900	4267699.41125	0.644215762546675	0.903341783912857	1.86622493069019	9H-carbazole	UJOBWOGCFQCDNV-UHFFFAOYSA-N
605.36	3072445.19915	2.30645701032597	0.710402554335505	0.530402599648093	3-heptanol	RZKSECIXORKHQS-UHFFFAOYSA-N
750	1551567.14545	0.751541970757023	0.810806882444169	1.55523839610286	decylcyclohexane	STWFZICHPLEOIC-UHFFFAOYSA-N
714.9	1423722.29467	0.380551906926826	0.824434992894449	3.01573480256645	2-methylpentadecane	BANXPJUEBPWEOT-UHFFFAOYSA-N
659	2015280.0875	0.550903266409216	0.763916926245375	1.79263279884094	bis(1,1-dimethylethyl) propanedioate	CLPHAYNBNTVRDI-UHFFFAOYSA-N
557	3151551.73581	1.32900103291131	0.974438345396633	0.704327017338376	1-methylpropyl ethanoate	DCKVNWZUADLDEH-UHFFFAOYSA-N
790	2648872.0837	1.32958514500479	0.992851409239018	0.721775667504368	1-(1,1-dimethylethyl)naphthalene	SPLGZANLVHBDCC-UHFFFAOYSA-N
716	3669594.25102	0.598136828734487	0.787410163550172	1.2082888348504	(ethylthio)benzene	AEHWKBXBXYNPCX-UHFFFAOYSA-N
428.925970425	3046493.45497	0.553418954084404	0.916753159329638	1.73366572566375	1,1,1,2-tetrafluoro-2-(difluoromethoxy)ethane	DPYMFVXJLLWWEU-UHFFFAOYSA-N
859	4746930.89102	1.65143671479899	0.977120048420661	0.775935882552163	N-(4-ethoxyphenyl)ethanamide	CPJSUEIXXCENMM-UHFFFAOYSA-N
631.171856481	3197451.24195	0.371616018116236	0.844860438311208	1.87441846981316	isopropylbenzene	RWGFKTVRMDUZSP-UHFFFAOYSA-N
782	1539261.9534	0.803985708327162	0.891855656840157	1.98976073148567	8-decylbicyclo[4.3.0]nonane	AFLBFEWFPKHXHU-UHFFFAOYSA-N
763	1639518.00618	1.50054889328369	0.999815830550511	0.865874667310833	undecylbenzene	XBEADGFTLHRJRB-UHFFFAOYSA-N
691	1581139.30817	0.210826732580062	0.806100526798092	3.44207968354594	1-tetradecene	HFDVRLIODXPAHB-UHFFFAOYSA-N
797	2779502.7427	0.717087082335066	0.797324585349879	1.34969036182124	3-(1-Methylethyl)-1,1'-biphenyl	LIWRTHVZRZXVFX-UHFFFAOYSA-N
578	3565579.57852	0.963301746445826	0.784177428302212	1.19648947752657	2,2-dimethyl-1-butanol	XRMVWAKMXZNZIL-UHFFFAOYSA-N
501.651704961	1587128.09501	1.78107925678478	0.999954273057423	0.630343752243706	octadecafluorooctane	YVBBRRALBYAZBM-UHFFFAOYSA-N
857.1708	2871682.98047	0.260846169931978	0.824681804059549	3.0089948310174	o-terphenyl	OIAQMFOKAXHPNH-UHFFFAOYSA-N
826	3167459.71021	0.771970000904477	0.891726881811875	1.9912166527188	2,2'-(phenylimino)diethanol	OJPDDQSCZGTACX-UHFFFAOYSA-N
772	2733538.82369	0.313669829533108	0.828576693691732	2.93112665555361	dimethyl 1,2-benzenedicarboxylate	NIQCNGHVCWTJSM-UHFFFAOYSA-N
676	3512814.07876	0.302050651741316	0.859400517854711	2.40512380627476	exo-tetrahydrodicyclopentadiene	LPSXSORODABQKT-FIRGSJFUSA-N
751.434605381	2121239.3789	0.937713870524911	0.914093843666947	1.75773326862677	methyl 4-hydroxybenzoate	LXCFILQKKLGQFO-UHFFFAOYSA-N
792	1370110.49609	2.29369555114336	0.90696484137035	0.705179868296046	heptadecanoic acid	KEMQGTRYUADPNZ-UHFFFAOYSA-N
311.100667	3705347.49676	0.133205791963511	0.83419694387829	2.82292372847444	trifluoroethanenitrile	SFFUEHODRAXXIA-UHFFFAOYSA-N
685	2331335.732	0.868322524003968	0.957034144939318	1.28048535695472	1,2,4-triethylbenzene	WNLWIOJSURYFIB-UHFFFAOYSA-N
602	3968179.96488	0.308898875869801	0.836823956147404	2.76032258287394	methyl 2-hydroxypropanoate	LPEKGGXMPWTOCB-UHFFFAOYSA-N
748	1293024.17685	0.21800074683169	0.793718920970347	3.78907480169597	1-octadecene	CCCMONHAUSKTEQ-UHFFFAOYSA-N
712	3519956.47658	0.793023974818543	0.899550336837726	1.90589897105174	4-oxopentanoic acid	JOOXCMJARBKPKM-UHFFFAOYSA-N
415.91581	5298277.68433	0.53972606190988	0.951774738483968	1.3285441493536	chlorine fluoride (ClF5)	KNSWNNXPAWSACI-UHFFFAOYSA-N
637	2446585.36646	1.82559553330814	0.979189460712468	0.4900436268306	butanoic acid, 2-methyl-, butyl ester	OTKQNSSMCDLVQV-UHFFFAOYSA-N
530	2207234.78555	0.74079774882294	0.892233059714375	1.98554635656893	1,1,2,2,3,3,4,4,5,5,6,6,7,7,8,8-hexadecafluorooctane	JCRVQXKRULILSR-UHFFFAOYSA-N
647.056369231	3855557.11014	0.638173736517606	0.820859123625879	1.18618579210609	2,4-dimethylpyridine	JYYNAJVZFGKDEQ-UHFFFAOYSA-N
554	4195237.25209	0.459932175120648	0.874776377095395	2.19444535169156	ethyl methyl carbonate	JBTWLSYIZRCDFO-UHFFFAOYSA-N
893	3360085.66043	0.496047684041622	0.830572927527565	1.63669808090684	phenanthrene	YNPNZTXNASCQKK-UHFFFAOYSA-N
599.7	3517942.52172	0.759575483108278	0.823414986879041	0.96495638992241	1-pentanethiol	ZRKMQKLGEQPLNS-UHFFFAOYSA-N
523.36	5061088.87285	1.14554614390187	0.91721602986683	0.57962810082758	1,1-dichloroethane	SCYULBFZEHDVBN-UHFFFAOYSA-N
649.266766231	2529989.5729	1.77780422090788	0.565822749945158	0.73278473422391	2-nonanol	NGDNVOAEIVQRFH-UHFFFAOYSA-N
680.5	2155672.58984	0.6773822753749	0.804451113951683	1.50301029807462	1-chlorodecane	ZTEHOZMYMCEYRM-UHFFFAOYSA-N
698	3394456.58044	1.65157440601568	0.999958267655477	0.581858509330193	2-cyclohexylethanol	QJQZRLXDLORINA-UHFFFAOYSA-N
722	3413448.83889	1.20216903630661	0.999195394153197	0.792247253678158	2-nitrotoluene	PLAZTCDQAHEYBI-UHFFFAOYSA-N
737	3208088.7348	0.383744304107177	0.821513465996868	1.92725822075826	3-nitrotoluene	QZYHIOPPLUPUJF-UHFFFAOYSA-N
661	5757811.74662	0.732514860019013	0.893316404954365	0.878187240964279	cyclopentyl azide	SSJIACUDWJVGLB-UHFFFAOYSA-N
585.821	1333283.25949	0.303080134849771	0.760296725129334	2.4770104880114	octamethylcyclotetrasiloxane	HMMGMWAXVFQUOA-UHFFFAOYSA-N
612	2558164.57905	0.184827307391404	0.833361931188068	2.83436664946	2,2,4,4-tetramethyl-3-pentanone	UIQGEWJEWJMQSL-UHFFFAOYSA-N
657	3764863.93473	1.58611287597417	0.999731863845984	0.825540499503725	2-methyl-2,4-pentanediol	SVTBMSDMJJWYQN-UHFFFAOYSA-N
708	2758289.5391	1.70257885323313	0.983573918296346	0.56930573996755	1,7-dichloroheptane	PSEMXLIZFGUOGC-UHFFFAOYSA-N
593.3	2762461.72919	1.31420729962601	0.999100447100328	0.755356558903504	ethyl pentanoate	ICMAFTSLXCXHRK-UHFFFAOYSA-N
652	2981113.94114	0.302322429394519	0.835530226289155	2.21712180458035	1,2-dichlorohexane	ZHFXSKJYCSWRJA-UHFFFAOYSA-N
705	1938004.21913	1.41031988863222	0.998929814758274	0.752702885678187	heptylcyclohexane	MSTLSCNJAHAQNU-UHFFFAOYSA-N
584.061	2308338.8406	0.274005183938223	0.840703233528822	2.70492465553378	dibutyl ether	DURPTKYDGMDSBL-UHFFFAOYSA-N
573.9	2720536.28915	0.401770232652428	0.922348599877962	1.68062477551636	1-pentene, 2,3,3-trimethyl-	TUSBCMPNIOJUBX-UHFFFAOYSA-N
846	1231935.72552	0.891122017398477	0.853583787632163	2.49283330918024	benzene, 1,1'-[4-(3-phenylpropyl)-1,7-heptanediyl]bis-	QQEZQKPPCWXFPH-UHFFFAOYSA-N
608	4997945.78213	0.713250608609262	0.820067610321019	0.893204453561815	2-methylthiophene	XQQBUAPQHNYYRS-UHFFFAOYSA-N
708	1789810.0935	0.488128080978658	0.832618187939351	2.85267067753374	(Z)-dodec-8-enyl acetate	SUCYDSJQVVGOIW-WAYWQWQTSA-N
832	901314.755928	1.02637187733234	0.0000848265226791731	1.33110852278001	1,1'-hexadecylidenebiscyclopentane	CUGOOMPOAPXGEE-UHFFFAOYSA-N
588	2969273.17161	2.84297039638828	0.240909866972177	0.644643942806054	2-methyl-2-hexanol	KRIMXCDMVRMCTC-UHFFFAOYSA-N
582	4742452.93318	0.74265603860563	0.877141260320918	2.16445436571356	2-butanone oxime	WHIVNJATOVLWBW-SNAWJCMRSA-N
669.5	2122002.94027	0.73460807216757	0.904204399893966	1.85726565791718	octyl 2-propenoate	ANISOHQJBAQUQP-UHFFFAOYSA-N
589	3979859.19324	0.505939095021915	0.947366046980737	1.37111137707884	3-methylcyclohexene	UZPWKTCMUADILM-UHFFFAOYSA-N
585	3100837.54709	0.521786608934925	0.922700547444725	1.67836474996406	4,4-dimethyl-2-pentanone	AZASWMGVGQEVCS-UHFFFAOYSA-N
455.1	2774171.74837	2.8230247458084	0.999560912094263	0.320616614413375	difluoromethyl 2,2,3,3,3-pentafluoropropyl ether	NKEBKUGEYSHGKA-UHFFFAOYSA-N
598	3234881.16246	0.480644220174209	0.921898375829741	1.68185948909517	1,4-dimethylcyclohexene	KMGDYKOGDOVDCW-UHFFFAOYSA-N
561.041	3708240.47452	0.588598386349971	0.820660387378034	1.26273353941765	pentan-2-one	XNLICIUVMPYHGG-UHFFFAOYSA-N
505.35	3278115.19107	2.43553877556761	0.921905152979274	0.374017211342807	1,1,2,2-tetrafluoro-3-methoxypropane	CTXZHYNQHNBVKL-UHFFFAOYSA-N
659	3400399.01634	1.23950886266823	0.999884087112462	0.745426731888308	3-ethyl-6-methylpyridine	NTSLROIKFLNUIJ-UHFFFAOYSA-N
662	3309010.22239	1.53332164069839	0.999997416207621	0.474723988668516	cis-bicyclo[4.3.0]nonane	BNRNAKTVFSZAFA-DTORHVGOSA-N
636	2233980.57482	0.740801152023904	0.775519187202293	1.11864740200297	3-methyl-3-propyl-1-heptene	OPQXVRFRVFLJEX-UHFFFAOYSA-N
673	1739468.2869	0.616689497242508	0.790069180561364	1.70310324846751	1-tridecene	VQOXUMQBYILCKR-UHFFFAOYSA-N
647.9562	2515267.02116	2.09135015005736	0.651248138012402	0.608053779481549	3-nonanol	GYSCXPVAKHVAAY-UHFFFAOYSA-N
656.8	2338164.75885	0.477191651127864	0.846359240109677	2.60855292903469	1-decanamine	MHZGKXUYDGKKIU-UHFFFAOYSA-N
825	1815239.2779	1.48410592459781	0.995175688574542	0.724924594213596	1,1':2',1''-tercyclohexane	JSVILEFZXZLOES-UHFFFAOYSA-N
779	2480280.43788	0.352815320513964	0.830659669735601	2.37542883822749	1,2-diphenylethane	QWUWMCYKGHVNAV-UHFFFAOYSA-N
639.1	4293693.75049	0.807182199676554	0.999983025244385	0.925354225134938	titanium(IV) chloride	XJDNKRIXUMDJCW-UHFFFAOYSA-J
651.15	2805359.50639	0.312915307971781	0.80787041268134	2.02473561606645	1-(1-methylethyl)-4-methylbenzene	HFPZCAJZSCWRBC-UHFFFAOYSA-N
559.3	4064800.92396	1.3115297974916	0.999979282818508	0.541528763768968	2-methyl-1-propanethiol	BDFAOUQQXJIZDG-UHFFFAOYSA-N
695	5204921.34899	0.843859913468879	0.915106528254725	1.74926523175305	2-pyridinecarboxylic acid, methyl ester	NMMIHXMBOZYNET-UHFFFAOYSA-N
676.4	5942796.14986	0.433630860990676	0.747337469154135	2.02014117148798	1,2-propanediol	DNIAPMSPPWPWGF-UHFFFAOYSA-N
608.8	2985285.68584	0.145571559720289	0.820136613720584	2.93123780156085	3-thiaheptane	XJIRSLHMKBUGMR-UHFFFAOYSA-N
574.5	3569808.53075	0.104715696165066	0.828231562856431	2.92071919761935	2-methyl-3-thiapentane	NZUQQADVSXWVNW-UHFFFAOYSA-N
582	3673184.95791	1.03909788228622	0.999895823884141	0.712457155074933	1,1-dichloro-2-methylpropane	JVHKSSIDGAUKGK-UHFFFAOYSA-N
704.56844	4082219.73378	1.98557570004361	0.999982822328314	0.459852237138754	4-methylphenol	IWDCLRJOBJJRNH-UHFFFAOYSA-N
574	3430107.41542	0.749499452663667	0.668860071847128	0.885301538345094	trimethyl phosphite	CYTQBVOFDCPGCX-UHFFFAOYSA-N
588.9	3101161.95981	0.15549819952487	0.840647736471831	2.70390708285053	trans-1,3-dimethylcyclohexane	SGVUHPSBDNVHKL-HTQZYQBOSA-N
615.2	2618386.76396	0.651299579700832	0.825009120751396	1.53780947031369	ethyl hexanoate	SHZIWNPUGXLXDT-UHFFFAOYSA-N
709	1741912.64796	2.20682437884084	0.987948877092548	0.37218461448628	1-tert-butyl-2-isopropyl-5-methylcyclohexane	CLRHMJMFEKSASH-UHFFFAOYSA-N
574	4077925.66232	0.695722739183256	0.902669285626747	1.87315866768754	2-(N,N-dimethylamino)ethanol	UEEJHVSXFDXPFK-UHFFFAOYSA-N
709	3909426.88717	1.01428555175889	0.980736783692937	1.10287220868767	4-ethylbenzenamine	HRXZRAXKKNUKRF-UHFFFAOYSA-N
595.7	2415106.5331	0.542084851247149	0.802025700826001	1.42586485971559	methyl 1,1,3,3-tetramethylbutyl ether	IKZVAPMTXDXWMX-UHFFFAOYSA-N
821	3742916.8996	1.28691984389138	0.883267479560852	0.736844422706984	1-naphthol	KJCVRFUGPWSIIH-UHFFFAOYSA-N
694	3630738.4427	0.476241444091828	0.874786573134474	2.19420933478182	3-cyanotoluene	BOHCMQZJWOGWTA-UHFFFAOYSA-N
592	3320745.40017	1.81822958874348	0.449013365532686	0.714780522829324	3,3-dimethyl-1-butanol	DUXCSEISVMREAX-UHFFFAOYSA-N
868	3163932.93396	0.529569247497253	0.872019060986435	2.23028565141174	1-methylanthracene	KZNJSFHJUQDYHE-UHFFFAOYSA-N
640	2488380.18335	0.697232688166764	0.900474863005737	1.89595211129102	3,7-dimethyl-6-octen-1-yn-3-ol	YWTIDNZYLFTNQQ-UHFFFAOYSA-N
545.408527766	4873081.0958	0.508253643226292	0.923471033020194	1.67120654526269	acetonitrile	WEVYAHXRMPXWCK-UHFFFAOYSA-N
760	2823367.5954	2.60192636432198	0.52914354983777	0.527199483262264	2-butyl-2-ethyl-1,3-propanediol	DSKYSDCYIODJPC-UHFFFAOYSA-N
741	2272403.67445	0.202765551778875	0.820500276401163	2.92034163600321	cycloundecanone	UPOSSYJVWXLPTA-UHFFFAOYSA-N