Tc	Pc	c0	c1	c2	name	inchikey
772	2741117.27933	0.196729235773403	0.821288514926574	3.08083703201969	1-propylnaphthalene	HMAMGXMFMCAOPV-UHFFFAOYSA-N
699	3727463.81085	0.532095408357068	0.846613185985046	1.37074250795765	1-chloro-3-ethenylbenzene	BOVQCIDBZXNFEJ-UHFFFAOYSA-N
749	3129939.78392	1.16853634032923	0.981892764696063	1.03020681644712	4'-methoxyacetophenone	NTPLXRHDUXRPNE-UHFFFAOYSA-N
675.9	2826487.34482	1.00546642580144	0.843669804507797	0.859982643965039	4,5-dithiaoctane	ALVPFGSHPUPROW-UHFFFAOYSA-N
770	2314437.61134	1.39569893565995	0.960148845461769	1.25345152947617	diethyleneglycol bis(chloroethanoate)	HMTPTJJAOZAOSQ-UHFFFAOYSA-N
661	5068371.24176	0.628047708336227	0.92369423552535	1.66932744623523	1,3-dibromo-2-methylpropane	SMGXHVWYXQYMNN-UHFFFAOYSA-N
599	4312871.32242	1.0547188295775	0.999930682963229	0.74315490257414	1-chloro-1-methylcyclopentane	XDULUGNXCNQBNS-UHFFFAOYSA-N
536.7673694	5137701.48596	1.08853421440498	0.9556501709108	1.20245574905879	propan-1-ol	BDERNNFJNOPAEC-UHFFFAOYSA-N
718.630794785	6580274.05527	1.34533380358254	0.999998435175461	0.938951906178129	propan-1,3-diol	YPFDHNVEDLHUCE-UHFFFAOYSA-N
566	4480206.57527	0.149866154570837	0.847956583668224	2.58097016161316	bicyclo[2.2.1]hepta-2,5-diene	SJYNFBVQFBRSIB-UHFFFAOYSA-N
603.3	2994804.21898	1.99542366319032	0.692486752015932	0.476728738607626	4-methyl-2-hexanone	XUPXMIAWKPTZLZ-UHFFFAOYSA-N
705	3875026.08054	0.690925463784189	0.921722825469097	1.68720929834368	methyl 4-pyridinecarboxylate	OLXYLDUSSBULGU-UHFFFAOYSA-N
521	4058212.73175	0.509178465083538	0.923690564183366	1.66938064406015	2,3-dichloro-1,1,1-trifluoropropane	QJMGASHUZRHZBT-UHFFFAOYSA-N
743.9	1614367.98456	0.736238190022128	0.903767561139243	1.86165215636652	1-chlorotetradecane	RNHWYOLIEJIAMV-UHFFFAOYSA-N
702	3113713.11587	0.371205037334767	0.839690134569604	2.71364970814631	ethyl 2-hydroxybenzoate	GYCKQBWUSACYIF-UHFFFAOYSA-N
819	3449369.69932	0	0.299932072823727	0.640995898004767	nonanoic acid, 9-hydroxy-, .theta.-lactone	FTXUQEKXCJSWMO-UHFFFAOYSA-N
579	1872060.59622	1.86211501685628	0.999464789715637	0.826938859272198	perfluoroheptanoic acid	ZWBAMYVPMDSJGQ-UHFFFAOYSA-N
593.7	2382158.80711	1.03707348426332	0.8613890716222	0.863358251400382	1-nonene	JRZJOMJEPLMPRA-UHFFFAOYSA-N
842.2	729177.096963	1.84293433400309	0.997450075548184	0.974483877877324	nonacosane	IGGUPRCHHJZPBS-UHFFFAOYSA-N
948	2144139.06069	1.30144732411474	0.753098370024631	1.08692060961	1,3,5-triphenylbenzene	SXWIAEOZZQADEY-UHFFFAOYSA-N
702	3844781.0396	0.845425113651895	0.915425338500775	1.74602890527702	(1-iodoethyl)benzene	HOVGFTKZAOQJEF-UHFFFAOYSA-N
616.769230769	3158783.62733	0.279907485396495	0.843596104928559	2.65397907664532	heptanal	FXHGMKSSBGDXIY-UHFFFAOYSA-N
778	687727.66636	1.43450424695252	0.976299257549864	1.1350137951282	2,2,4,10,12,12-hexamethyl-7-(3,5,5-trimethylhexyl)tridecane	VJDJSJSGMRWTIK-UHFFFAOYSA-N
750	2941950.88508	0.371014363246752	0.80989191969644	2.25775078478894	1,3-dioxane, 5,5-dimethyl-2-phenyl-	VUJMMVJKRWURKX-UHFFFAOYSA-N
716	2020852.52213	0.464613966937018	0.812629330971582	3.27934426072767	(-)-.alpha.-bisabolol	RGZSQWQPBWRIAQ-CABCVRRESA-N
754	10276024.0359	1.46997751454967	0.999985102337685	0.781472553773395	ethanamide	DLFVBJFMPXGRIB-UHFFFAOYSA-N
670.269230769	2502913.76538	0.644387646536388	0.905178278791372	1.84723063449033	2-(2-ethoxyethoxy)ethyl acetate	FPZWZCWUIYYYBU-UHFFFAOYSA-N
789	3720750.86402	0.581809096300373	0.923878341523551	1.66637780608934	1-chloronaphthalene	JTPNRXUCIXHOKM-UHFFFAOYSA-N
614.2	2159743.95748	0.337167420855444	0.82019539756513	2.32524861941222	3-methylnonane	PLZDDPSCZHRBOY-UHFFFAOYSA-N
627	1810337.41481	0.317050617148678	0.83896532814515	2.7353348574474	triisobutylamine	IIFFFBSAXDNJHX-UHFFFAOYSA-N
655.551892339	2753742.20032	1.79953131272619	0.999789623373604	0.569167199996791	bis(2-vinyloxyethyl) ether	SAMJGBVVQUEMGC-UHFFFAOYSA-N
662	3127811.82611	0.787327726151396	0.705127104124129	0.872202861842907	1,3,3-trimethyl-2-oxabicyclo[2.2.2]octane	WEEGYLXZBRQIMU-UHFFFAOYSA-N
741	3195893.58581	0.533790126111062	0.916379990269073	1.73534550279941	4-(1,1-dimethylethyl)phenol	QHPQWRBYOIRBIT-UHFFFAOYSA-N
773	5276909.35073	1.14284504358535	0.99993474038795	0.702736318944386	2,6-dichlorophenol	HOLHYSJJBXSLMV-UHFFFAOYSA-N
625.5	2473365.87318	0.562467386642597	0.79387994709862	1.4863906664134	2-methyl-6-methylene-2,7-octadiene	UAHWPYUMFXYFJY-UHFFFAOYSA-N
684	6500037.29082	1.61119709068734	0.998239937368687	0.344989769727064	thiacyclohexane	YPWFISCTZQNZAU-UHFFFAOYSA-N
625	3054007.49178	1.38782934696547	0.999811616206895	0.952061388575084	ethylene diacetate	JTXMVXSTHSMVQF-UHFFFAOYSA-N
702	1921503.74026	1.51062063448671	0.984440077393279	0.778173417853969	1,2,3,5-tetraethylbenzene	QJEXLOSCNXHBAX-UHFFFAOYSA-N
723	3551925.13534	0.226848321237951	0.846799879896785	2.60020385580042	1,2,4-trichlorobenzene	PBKONEOXTCPAFI-UHFFFAOYSA-N
678.8	3388080.19179	2.66746010919326	0.809911557676317	0.479753514325685	ethyl cyanoacetate	ZIUSEGSNTOUIPT-UHFFFAOYSA-N
745	3387688.2713	0.424394881070645	0.85919298720277	2.40738991072376	(-)-3-(N-methylpyrrolidino)pyridine	SNICXCGAKADSCV-JTQLQIEISA-N
756	2096021.90797	1.50706975632861	0.999309443419417	0.653251997900684	1,2-dicyclohexylethane	IBLVSWYGUFGDMF-UHFFFAOYSA-N
605	1481650.34319	0.728949982001906	0.833711011401971	2.83209873870133	1H,1H,11H-eicosafluoro-1-undecanol	GJYLSFCFHFUODO-UHFFFAOYSA-N
604.1	3024007.3277	0.509825514373374	0.913609632796513	1.76372282360033	5-methyl-2-hexanone	FFWSICBKRCICMR-UHFFFAOYSA-N
763	4026035.62955	1.67858149465237	0.999981976386514	0.696060357491645	2-methylbenzoic acid	ZWLPBLYKEWSWPD-UHFFFAOYSA-N
722.6	1281991.9379	0.853446892463511	0.87138893390725	2.23856259623816	methyl hexadecanoate	FLIACVVOZYBSBS-UHFFFAOYSA-N
737	3508050.26078	0.448298459087147	0.799246210864887	1.66414709971704	1,2-dihydro-4-methylnaphthalene	NACZXFJTTCJDJR-UHFFFAOYSA-N
798	1930000	0.00000000151293045865796	0.436804034813688	1.85740070364172	1,12-dihydroxydodecane	GHLKSLMMWAKNBM-UHFFFAOYSA-N
600.1	3461928.85308	0.506348086678121	0.865494617796454	2.31697628124345	1-heptanamine	WJYIASZWHGOTOU-UHFFFAOYSA-N
728	2130574.24674	1.15993252046538	0.7482491532308	1.28392527236061	undecanoic acid	ZDPHROOEEOARMN-UHFFFAOYSA-N
759	3629013.77338	0.898366786718893	0.887399533789411	2.04017176089229	.gamma.-1,2,3,4,5,6-hexachlorocyclohexane	JLYXXMFPNIAWKQ-GNIYUCBRSA-N
735	3570053.79304	0.207739470494784	0.835081800521427	2.80574878674095	4'-methylacetophenone	GNKZMNRKLCTJAY-UHFFFAOYSA-N
892	4755369.68818	0.263852276782473	0.796840214490031	1.92519784839183	1-methylbenzimidazole	FGYADSCZTQOAFK-UHFFFAOYSA-N
784	1685408.03761	2.97954871794205	0.482700477394673	0.516461621058519	1-tetradecyl cyanide	KRKQHNVYOWTEQO-UHFFFAOYSA-N
609.3	2068425.153	0.154738721431187	0.813464997739588	3.25684107670015	di-(3-methylbutyl) ether	AQZGPSLYZOOYQP-UHFFFAOYSA-N
682	2776398.71246	2.9761176860547	0.844778265106706	0.34785367736927	dimethyl pentanedioate	XTDYIOOONNVFMA-UHFFFAOYSA-N
940	1515926.10276	0	0.220125602512814	0.931785650542116	1-methyl-3,5-bis(2-phenylethoxy)benzene	BMRJNIRVLVSODT-UHFFFAOYSA-N
812	599346.672566	1.23200013601608	0.899949279946881	1.71091235356851	9-octyldocosane	RZCWYGUJADCQPF-UHFFFAOYSA-N
626.5	2807212.03447	2.25019739877822	0.864451037632151	0.495622890874603	3-(S)-octanol	NMRPBPVERJPACX-QMMMGPOBSA-N
499.9	4347051.41652	0.484314866761754	0.923733342162352	1.66701735637902	1,1-dimethyloxirane	GELKGHVAFRCJNA-UHFFFAOYSA-N
433.266728281	2537993.45474	1.5865490449941	0.924374367293987	0.581552696083993	methyl perfluoroisopropyl ether	HRXXERHTOVVTQF-UHFFFAOYSA-N
619	3789778.61481	0.49435794347047	0.828186361621417	2.13679135884266	4-hydroxy-4-methylpentan-2-one	SWXVUIWOUIDPGS-UHFFFAOYSA-N
723.7686	2630637.1252	1.81064191891185	0.999672121796844	0.803320077950371	decanoic acid	GHVNFZFCNZKVNT-UHFFFAOYSA-N
678.483533333	3037012.26824	1.95751076010935	0.999202078927706	0.663879683941752	heptanoic acid	MNWFXJYAOYHMED-UHFFFAOYSA-N
658	4175264.42202	0.96356408185991	0.999931752811252	0.951892209670229	2-furaldehyde	HYBBIBNJHNGZAN-UHFFFAOYSA-N
730	2974564.89045	1.83495394733931	0.637084201603803	0.666269431279167	4-butylphenol	CYYZDBDROVLTJU-UHFFFAOYSA-N
553	5129886.11871	0.634217489655001	0.907079160154692	1.8280334002594	butyl methanoate	NMJJFJNHVMGPGM-UHFFFAOYSA-N
683	1975591.26477	0	0.193082911329712	0.96000736695044	.alpha.,.alpha.-dimethylbenzyl alcohol	BDCFWIDZNLCTMF-UHFFFAOYSA-N
708	1653037.38025	0.417315222168271	0.833603658594028	2.83380443652234	di-tert-butyl adipate	QSVAYRBPFFOQMK-UHFFFAOYSA-N
731	4699371.68362	0.61804391388983	0.900299565800828	1.45267497970553	2-chlorobenzeneamine	AKCRQHGQIJBRMN-UHFFFAOYSA-N
712	2936993.16873	0.537508391356631	0.840725615822993	1.46424272081409	benzene, (1,1-dimethoxyethyl)-	XKSUVRWJZCEYQQ-UHFFFAOYSA-N
843	7243434.80164	0.777918782033919	0.920479410945596	1.69850782628851	succinimide	KZNICNPSHKQLFF-UHFFFAOYSA-N
638	6989663.67618	0.827605389633559	0.888341862167451	2.02943024560064	(+)-(S)-1,2-propanediol	DNIAPMSPPWPWGF-VKHMYHEASA-N
683.24934	1043384.4265	1.29640220144126	0.627339054867868	1.06875469618015	tetradecamethylcycloheptasiloxane	GSANOGQCVHBHIF-UHFFFAOYSA-N
792	3747927.92534	0.236936067720784	0.838494402340215	2.74397534173428	4-methylquinoline	MUDSDYNRBDKLGK-UHFFFAOYSA-N
723	2298335.0737	0.322144859700863	0.825495201126996	2.99221713155142	1,8-octanedioic acid, dimethyl ester	LNLCRJXCNQABMV-UHFFFAOYSA-N
613	2917093.18942	0.788181426828358	0.895882635633089	1.94530045710576	O,O-diethyl methylphosphonate	NYYLZXREFNYPKB-UHFFFAOYSA-N
626.5	2811361.04736	0.0491055428226195	0.780727455407932	4.17299650465258	(S)-(+)-2-octanol	SJWFXCIHNDVPSH-QMMMGPOBSA-N
678	2251561.08983	1.12958814239038	0.802810159555658	1.10329345138267	terpineol, acetate	IGODOXYLBBXFDW-UHFFFAOYSA-N
700	3495924.64716	1.79932560625612	0.999970098227938	0.495979049571164	N,N,N',N'-tetraethylurea	UWHSPZZUAYSGTB-UHFFFAOYSA-N
631.3	1996342.45272	1.1092924096105	0.983061304292446	1.09260709427275	N,N-dimethyl-1-octanamine	UQKAOOAFEFCDGT-UHFFFAOYSA-N
793	1088002.27344	1.12190203499947	0.817358608290341	1.45518267065696	hexadecylbenzene	DEQLTFPCJRGSHW-UHFFFAOYSA-N
811	1429757.96704	0.691024636618221	0.836868721316741	2.10912452600829	dipentyl 1,2-butanedioate	IPKKHRVROFYTEK-UHFFFAOYSA-N
624	2663306.69415	2.11547810339082	0.763681145993131	0.54811343099534	6-methyl-2-heptanol	FCOUHTHQYOMLJT-UHFFFAOYSA-N
790	2808075.65241	0.662639101399643	0.8294628604463	1.56526129488304	3,3'-dimethylbiphenyl	GVEDOIATHPCYGS-UHFFFAOYSA-N
824	3447111.18976	0.115351334665966	0.821916358734728	3.06642037360256	dibenzo[bd]furan	TXCDCPKCNAJMEE-UHFFFAOYSA-N
614	2575510.13379	0.146869958150225	0.00252647237877866	0.891417220776099	3-methyl-3-heptanol	PQOSNJHBSNZITJ-UHFFFAOYSA-N
778	3919722.85424	0.790349430459898	0.836637751477716	1.07162879813586	2-methylquinoline	SMUQFGGVLNAIOZ-UHFFFAOYSA-N
633.9	3269061.27388	0.238514518186244	0.822540522969907	3.0539403334325	2-butoxyethan-1-ol	POAOYUHQDCAZBD-UHFFFAOYSA-N
501.08	3089803.42911	2.37869740824248	0.998690986180914	0.422647443776473	1,1,2,2-tetrafluoro-2-(2,2-difluoroethoxy)ethane	XYUTZEMBPIRNFA-UHFFFAOYSA-N
646	1943700.12834	0.471596106137479	0.851818226494829	2.48189462080179	tributylamine	IMFACGCPASFAPR-UHFFFAOYSA-N
694	5282426.00417	0.56799975855951	0.7680260092207	1.03804780620281	benzenethiol	RMVRSNDYEFQCLF-UHFFFAOYSA-N
651	2905087.57525	0.697252764092091	0.936082809854192	1.49534189237386	1-methylcyclohexanol	VTBOTOBFGSVRMA-UHFFFAOYSA-N
562.088193996	4393726.85563	1.34513425171924	0.999999784869556	0.937002566445345	butan-1-ol	LRHPLDYGYMQRHN-UHFFFAOYSA-N
737	5426202.06194	0.801977643352298	0.880856749107343	2.11823660027231	1,2,3-butanetriol	YAXKTBLXMTYWDQ-UHFFFAOYSA-N
731	1331997.40193	0.698275250383984	0.858083364007864	2.34275701384985	dibutyl hexanedioate	XTJFFFGAUHQWII-UHFFFAOYSA-N
739.2	4463601.90647	1.9568591743413	0.797884805033562	0.619253457958324	N-(2-aminoethyl)ethanolamine	LHIJANUOQQMGNT-UHFFFAOYSA-N
742	2870976.55236	1.31553095184488	0.99998542543383	0.646491737950209	1,1'-bicyclohexyl	WVIIMZNLDWSIRH-UHFFFAOYSA-N
738.7	1260289.31517	0.883643414720934	0.878926317957321	2.14209898193436	ethyl hexadecanoate	XIRNKXNNONJFQO-UHFFFAOYSA-N
658	3074388.67188	0.150873881141831	0.659856161314543	2.08092516231258	(1-ethylpropyl)benzene	PBWHJRFXUPLZDS-UHFFFAOYSA-N
752	2700000	0.606150318575503	0.755825379423333	1.95368298972557	1,8-octanediol	OEIJHBUUFURJLI-UHFFFAOYSA-N
749	2896429.3053	0.464292287670839	0.852697588374265	2.11614791307656	2,6-dimethylnaphthalene	YGYNBBAUIYTWBF-UHFFFAOYSA-N
810	3379884.22627	0.340896781158356	0.856339321530115	2.45072910017584	sulfolane	HXJUTPCZVOIRIF-UHFFFAOYSA-N
628.9581	3402185.60726	0.798662498597504	0.92154229609163	1.68889839839289	3-methylbutanoic acid	GWYFCOCPABKNJV-UHFFFAOYSA-N
529	5767840.34223	0.634662900932078	0.921569557676476	1.68858497000436	2-methyl-1,3-dioxolane	HTWIZMNMTWYQRN-UHFFFAOYSA-N
667.6	2077431.58996	1.37381208727629	0.999791613343063	0.990897698680015	1-aminoundecane	QFKMMXYLAPZKIB-UHFFFAOYSA-N
581	3533131.57112	0.712903377812896	0.906043373721324	1.83852456574713	ethyl orthomethanoate	GKASDNZWUGIAMG-UHFFFAOYSA-N
766	2506070.19414	0.545936999054598	0.780538526290302	1.78124021513053	dimethyl 1,3-benzenedicarboxylate	VNGOYPQMJFJDLV-UHFFFAOYSA-N
580	4540752.81127	0.584095739422889	0.923664348099482	1.66959724142976	(E)-2-methyl-2-butenenitrile	IHXNSHZBFXGOJM-HWKANZROSA-N
778	2558916.8674	0.512896329437905	0.436066578881799	0.975272257794381	.alpha.-dimethylaminonaphthalene	AJUXDFHPVZQOGF-UHFFFAOYSA-N
675	3421758.71404	1.53753028428904	0.998959683346513	0.500796138344127	1-propenylbenzene	QROGIFZRVHSFLM-UHFFFAOYSA-N
719	3688948.64435	1.31235434422846	0.999932581608877	0.703229877642226	ethyl phenyl ketone	KRIOVPPHQSLHCZ-UHFFFAOYSA-N
563.182	3652919.73413	0.673301597482929	0.916091602272495	1.73981510911516	2,4,6-trimethyl-1,3,5-trioxane	SQYNKIJPMDEDEG-UHFFFAOYSA-N
697	3223417.06779	0.124900601305761	0.818270894334021	3.14852005606625	2-phenylpropanal	IQVAERDLDAZARL-UHFFFAOYSA-N
653	3409990.52946	0	0.47278637040872	0.585715585705408	n-propyl nitrate	JNTOKFNBDFMTIV-UHFFFAOYSA-N
746	3748570.31064	0.634022014600744	0.924149628674076	1.66181237666659	1-iodo-2,4-dimethylbenzene	BUNKQJAMHYKQIM-UHFFFAOYSA-N
613	2599622.48945	1.64346173200975	0.238358814352873	0.791883721297286	2-heptanol, 2-methyl-	ACBMYYVZWKYLIP-UHFFFAOYSA-N
777	1049742.60961	1.62522418149972	0.999892685544193	0.971013121867575	ethyl octadecanoate	MVLVMROFTAUDAG-UHFFFAOYSA-N
645.3	2524956.28424	0.371045206130401	0.685936449705066	1.97585092099701	5-nonanol	FCBBRODPXVPZAH-UHFFFAOYSA-N
778	4162641.84248	0.771301498474079	0.807120328985297	1.6253464782884	.beta.,.beta.'-dihydroxydiethyl sulfide	YODZTKMDCQEPHD-UHFFFAOYSA-N
621.585363687	3975017.34287	0.72812919943146	0.914958964158824	1.75074316584335	butanoic acid	FERIUCNNQQJTOY-UHFFFAOYSA-N
770	1444696.47752	1.24660784599509	0.74596891557678	1.11465819227983	1-hexadecanol	BXWNKGSJHAJOGX-UHFFFAOYSA-N
558	2834745.42498	0.552124468268019	0.918725439460603	1.71513166861392	silicon tetramethoxide	LFQCEHFDDXELDD-UHFFFAOYSA-N
446	2183596.7328	0	0.222361182700442	1.0843221246904	difluoromethyl hexafluoroisopropyl ether	UNIYHTKWMKXESF-UHFFFAOYSA-N
779	1039627.88306	2.15129018913067	0.372095824168513	0.913933379144341	ethyl (Z)-9-octadeceneoate	LVGKNOAMLMIIKO-QXMHVHEDSA-N
652	3322211.75152	0	0.502707910757999	1.17389962176876	pentyl isocyanate	VRVUKQWNRPNACD-UHFFFAOYSA-N
752	2432491.58704	0.188833381594031	0.56699969203599	1.52107101529646	(E)-4-(2,6,6-trimethyl-1-cyclohexen-1-yl)-3-buten-2-one	PSQYTAPXSHCGMF-BQYQJAHWSA-N
759	5837591.57407	0.781186932044168	0.845719440198907	1.47728057742455	2-pyrrolidinone	HNJBEVLQSNELDL-UHFFFAOYSA-N
575.6	3652070.42567	1.16161937948037	0.999649332839706	0.887679798655434	3-methyl-3-pentanol	FRDAATYAJDYRNW-UHFFFAOYSA-N
896	3988247.90189	0.733357104893563	0.905412944052075	1.84478123879178	fluoranthene	GVEPBJHOBDJJJI-UHFFFAOYSA-N
651.8	3660205.44876	0.396145354775754	0.931799118275266	1.55106362338388	1,2-dibromo-2-methylpropane	SDTXSEXYPROZSZ-UHFFFAOYSA-N
679	3186676.67376	1.23033069145547	0.74106212502686	0.676670393113843	2-methyl-1-phenylpropene	BTOVVHWKPVSLBI-UHFFFAOYSA-N
723	2438500.72955	0.260339800416441	0.735604141826138	2.12208850056472	1,8-dichlorooctane	WXYMNDFVLNUAIA-UHFFFAOYSA-N
892	2222593.59065	0.704890878108002	0.896350551629869	1.94010612844599	4-tert-butylphenyl salicylate	DBOSBRHMHBENLP-UHFFFAOYSA-N
710	3489351.28741	0.803479231305553	0.883661992383582	2.08450889909332	2-[2-(2-hydroxypropoxy)propoxy]-1-propanol	LCZVSXRMYJUNFX-UHFFFAOYSA-N
595	2130825.69592	0	0.256851821586194	0.637170197558003	1-bromopentane	YZWKKMVJZFACSU-UHFFFAOYSA-N
719.9	1518449.1005	0.794085525252998	0.88829196329806	2.03013731596223	propyl dodecanoate	FTBUKOLPOATXGV-UHFFFAOYSA-N
810.25686	3667178.21651	0.606477449980916	0.91045121842262	1.79448250867161	N-cyclohexylpyrrolidinone	PZYDAVFRVJXFHS-UHFFFAOYSA-N
662	4431288.77416	1.58113738766546	0.969934920362569	0.86610102917203	N-methylpropanamide	QJQAMHYHNCADNR-UHFFFAOYSA-N
670	3167000	1.54725100363166	0.99942420797503	0.703261516029132	3,6-dioxa-1-octanol	XXJWXESWEXIICW-UHFFFAOYSA-N
546.1	2423622.13231	0	0.292410726381935	1.23400134619209	1,1,2,2,3,3,4,4-octafluoro-5-methoxypentane	OHYJUFNURZXEOG-UHFFFAOYSA-N
564	8893149.30757	0.854753096638428	0.804759393801616	1.00416721614041	methylhydrazine	HDZGCSFEDULWCS-UHFFFAOYSA-N
634	3763784.86206	1.36997632480007	0.256924130439053	0.830948900544696	methyl 3-oxobutanoate	WRQNANDWMGAFTP-UHFFFAOYSA-N
618.866432	2265264.17608	0.309065089168552	0.833051886933401	2.8424369258252	3-methylbutyl butanoate	PQLMXFQTAMDXIZ-UHFFFAOYSA-N
395.43	3617182.30483	1.37954535730169	0.99959095270378	0.497549816981183	2-chloro-1,1,1,2-tetrafluoroethane	BOUGCJDAQLKBQH-UHFFFAOYSA-N
790	3440998.71879	0.69712573176002	0.897417555065056	1.92846698583764	trimethylhydroquinone	AUFZRCJENRSRLY-UHFFFAOYSA-N
575	4112976.96783	0.657203062006674	0.908070084782314	1.81815024851556	methyl 2-hydroxy-2-methylpropanoate	XYVQFUJDGOBPQI-UHFFFAOYSA-N
708	6009301.22036	0	0.244665007062969	0.99717407861924	3-amino-1-propanol	WUGQZFFCHPXWKQ-UHFFFAOYSA-N
836	885955.81861	0.594966931633056	0.792643295331375	2.94544936106336	octacosane	ZYURHZPYMFLWSH-UHFFFAOYSA-N
552	3211037.12523	0.591527903725498	0.923657313309011	1.66957246490228	di-tert-butylperoxide	LSXWFXONGKSEMY-UHFFFAOYSA-N
676.5	1896951.52302	1.61483997468051	0.999701120265732	0.874822374107311	dodecanal	HFJRKMMYBMWEAD-UHFFFAOYSA-N
498.321384412	4764848.1178	1.85021863455967	0.999902116553662	0.417171725951127	propan-1-amine	WGYKZJWCGVVSQN-UHFFFAOYSA-N
401	5223064.3019	0	0.403519504644249	0.484732548658079	ethenone	CCGKOQOJPYTBIH-UHFFFAOYSA-N
323	4084307.30303	1.61576345110512	0.999985954540519	0.491447851975738	trifluoroacetyl fluoride	DCEPGADSNJKOJK-UHFFFAOYSA-N
825	3310954.99097	0.446129931762353	0.847393735603998	1.43442532815943	acetonitrile, (dimethylamino)phenyl-	PAGHXXKYFBGJEH-UHFFFAOYSA-N
851	2461832.00388	0.629707081990744	0.919905730602302	1.70405341468779	phenazine	PCNDJXKNXGMECE-UHFFFAOYSA-N
597	4005225.88578	1.29908387196679	0.675881420581596	0.51128913504549	cycloheptene	ZXIJMRYMVAMXQP-UHFFFAOYSA-N
575	3152623.87328	0.164089514379496	0.80171499565007	3.54723026577006	2,3-dimethyl-2-pentanol	YRSIFCHKXFKNME-UHFFFAOYSA-N
652	4580554.52831	0	0.447532048942256	0.962420968314893	4-ethylmorpholine	HVCNXQOWACZAFN-UHFFFAOYSA-N
731	5122170.69041	0.673901477424028	0.862689386372966	1.18174022270111	.gamma.-butyrolactone	YEJRWHAVMIAJKC-UHFFFAOYSA-N
797	1660000	1.91555061981546	0.999848417577818	0.673905896695184	dibutyl 1,2-benzenedicarboxylate	DOIRQSBPFJWKBE-UHFFFAOYSA-N
717	4287452.93804	0.676103081125303	0.92224232493572	1.6825603266	3,4-dichloroethylbenzene	LAGWZWJDSQHXQZ-UHFFFAOYSA-N
844	3403732.42489	1.00581374042987	0.9765746001351	1.13401754050885	1-methyl-9H-fluorene	GKEUODMJRFDLJY-UHFFFAOYSA-N