Tc	Pc	c0	c1	c2	name	inchikey
549.1	4228164.46105	0.85287885950862	0.935617059580316	1.05427391037234	ethyl chloromethanoate	RIFGWPKJUGCATF-UHFFFAOYSA-N
309.560935537	7249416.49525	0.469055812091562	0.812133940381591	1.03461229694677	nitrous oxide	GQPLMRYTRLFLPF-UHFFFAOYSA-N
495	4418860.51688	0.135556137152072	0.837711572122861	2.75812463391049	1,1-difluoro-1,2-dichloroethane	SKDFWEPBABSFMG-UHFFFAOYSA-N
493	3668070.40877	0.136782531294872	0.844702731680558	2.63600509744892	1,2-dibromotetrafluoroethane	KVBKAPANDHPRDG-UHFFFAOYSA-N
609	5352167.5127	0.17891623966833	0.847270325683156	2.59346570636542	1,1,2-trichloroethane	UBOXGVDOUJQMTN-UHFFFAOYSA-N
741	3039223.70273	1.65671274671883	0.998957072665534	0.580997268143434	2-methyl-3-(1-methylethyl)phenol	NKXINWNCBKRRIC-UHFFFAOYSA-N
543.913598173	2568058.74789	0.467164887029421	0.833274190184108	1.45561800192784	2,2,4-trimethylpentane	NHTMVDHEPJAVLT-UHFFFAOYSA-N
736	3271963.55031	0.555888341269798	0.869431848991069	1.70864296542972	cyclodecanone	SXOZDDAFVJANJP-UHFFFAOYSA-N
564	4992466.65767	1.37823657727695	0.999968523938327	0.852149983656203	acetaldoxime	FZENGILVLUJGJX-UHFFFAOYSA-N
655.48154	4032007.03886	0.430847829750239	0.826594251092088	1.6211021900941	2,3-dimethylpyridine	HPYNZHMRTTWQTB-UHFFFAOYSA-N
536.94	4267469.39021	0.420426401882767	0.821636157126925	1.34082101430291	1-bromopropane	CYNYIHKIEHGYOZ-UHFFFAOYSA-N
652	3180668.14143	0.280478478434417	0.804133214075628	2.32459180206275	tetramethylurea	AVQQQNCBBIEMEU-UHFFFAOYSA-N
663	4053003.74628	0.254017741468174	0.8511615910185	2.47011962270982	3-ethylpyridine	MFEIKQPHQINPRI-UHFFFAOYSA-N
905	394070.525671	1.6730717237682	0.952377617536866	1.32227943892622	1,2,3-propanetriyl tridodecanoate	VMPHSYLJUKZBJJ-UHFFFAOYSA-N
533.1	3337970.75592	0.43225986446908	0.832748953651579	1.38040607852318	2,3,3-trimethyl-1-butene	AUYRUAVCWOAHQN-UHFFFAOYSA-N
685	4482380.99837	0.510337500503044	0.826222542496527	1.32118083076188	2,3-benzofuran	IANQTJSKSUMEQM-UHFFFAOYSA-N
549	1642130.46064	0.384863359882798	0.827351337679923	2.9556220482779	1,1,2,2,3,3,4,4-octafluoro-5-(1,1,2,3,3,3-hexafluoropropoxy)pentane	JQADALFAZGYJDX-UHFFFAOYSA-N
585	1549994.10974	0.878003268526947	0.924614226323866	1.65126281266523	ethyl 7H-perfluoroheptanoate	RSWKGRCCLAUGLO-UHFFFAOYSA-N
516	3094190.78656	0.6718417178568	0.925132868182784	1.15508775089151	4,4-dimethyl-1-pentene	KLCNJIQZXOQYTE-UHFFFAOYSA-N
496.36196	2130880.57938	0.941327191229544	0.874003996346371	1.19584828766555	1,3,5,7,2,4,6,8-tetrazatetraphosphocine, 2,2,4,4,6,6,8,8-octafluoride	XSODZUWUOCBUAG-UHFFFAOYSA-N
376.75	3162742.98165	0.462879029044356	0.923654074528545	1.66952008675222	methane, thiobis[trifluoro-	OFHCXWMZXQBQMH-UHFFFAOYSA-N
501	4275852.9951	0.463691603293348	0.814509667983613	1.31747283936696	acetyl chloride	WETWJCDKMRHUPV-UHFFFAOYSA-N
542	1869894.76893	0.914300588610498	0.882896978825431	1.40582835497831	1H,1H,5H-octafluoropentyl-1,1,2,2-tetrafluoroethylether	ZNBGTBKGFZMWKR-UHFFFAOYSA-N
668.7	4192667.41326	0.192700132063682	0.844438681329262	2.64067646008711	1,3-dibromopropane	VEFLKXRACNJHOV-UHFFFAOYSA-N
564	4223255.24175	0.398313469422679	0.790769936613145	1.30555919479944	1,1-dichloropropane	WIHMGGWNMISDNJ-UHFFFAOYSA-N
358	3262896.35244	0.993445311009391	0.999781948658027	0.711867244074074	trifluoromethanethiol	MFLLMKMFWIUACU-UHFFFAOYSA-N
565.5	2847830.35851	0.522849167860152	0.809288380565226	1.49768458476336	ethyl 2,2-dimethylpropanoate	HHEIMYAXCOIQCJ-UHFFFAOYSA-N
576.9	3800267.15691	0.241074495086209	0.842106955748845	2.13502075045167	2,2-dimethyl-1-propanethiol	LSUXMVNABVPWMF-UHFFFAOYSA-N
643.846611	21671211.8904	0.514380334034488	0.857235190273759	1.53740189450642	water-d2	XLYOFNOQVPJJNP-ZSJDYOACSA-N
384.939488648	4110737.77464	0.433821211358351	0.821212359399117	1.15399410679926	dichlorodifluoromethane	PXBRQCKWGAHEHS-UHFFFAOYSA-N
671	2906160.71547	1.19988973895727	0.999923465309734	0.758006659554838	1,3-dimethyl-2-ethylbenzene	CHIKRULMSSADAF-UHFFFAOYSA-N
428	1943462.33895	1.33791495142898	0.999565752280954	0.710455519873004	perfluoropentanoyl fluoride	RUFSXELMOQBMOF-UHFFFAOYSA-N
618	4692814.2753	0.172853863416411	0.850534364067643	2.54021885953362	tetrachloroethene	CYTYCFOTNPOANT-UHFFFAOYSA-N
420.25	4152025.99145	1.0585847695779	0.994710397330412	0.821610162087476	bis(difluoromethyl) ether	IOCGMLSHRBHNCM-UHFFFAOYSA-N
528	3725463.61743	0.725851674999095	0.910537584397354	0.966025334533169	ethylcyclobutane	NEZRFXZYPAIZAD-UHFFFAOYSA-N
587	2777019.17138	0.811135411134101	0.938788421437028	1.46364461839896	1,1-dimethylpropyl propanoate	RHSLWHLBYFOBAF-UHFFFAOYSA-N
622.7	3134761.18385	1.12761892251801	0.941416539145157	0.841097838985672	3-nonyne	SRRDSRCWRHKEKU-UHFFFAOYSA-N
586.6	2877528.51118	0.99920934892234	0.916262712377671	0.992122106453948	2-methylpropyl 2-propenoate	CFVWNXQPGQOHRJ-UHFFFAOYSA-N
562.022898423	4896694.86712	0.181395259173263	0.824166030852509	2.06212555803455	benzene	UHOVQNZJYSORNB-UHFFFAOYSA-N
709	1971603.06181	1.37456675079313	0.999448160716642	0.980954913578058	1-methyl-3,5-bis(propan-2-yloxy)benzene	IHEARZCPQSZIPL-UHFFFAOYSA-N
749	2928195.33787	1.01541000529857	0.884176384061879	1.33299467040769	3-acetoxyacetophenone	OTHYPAMNTUGKDK-UHFFFAOYSA-N
937	277372.615684	1.60589313005849	0.929505193934039	1.51857057766135	1-myristyl-2-layryl-3-stearin	URBCZEZBOBWPKN-UHFFFAOYSA-N
575.44137931	3159096.2485	0.254748771423545	0.836474414970245	2.78073889624062	butyl ethanoate	DKPFZGUDAPQIHT-UHFFFAOYSA-N
833	1536430.87793	1.4525551671155	0.999928215169857	0.924997023820167	2-butyl-3-hexylnaphthalene	KIOGLHSMEPYIQR-UHFFFAOYSA-N
610.3	3296504.54838	0.605895207833014	0.806919787272837	1.23391688587521	2-nitrobutane	SUGZATOHBPXTDV-UHFFFAOYSA-N
485	2898509.35704	1.26233233843968	0.74920424446391	0.756528862209407	1,1,2,2-tetrafluorobutan-3-one	LXHNMFBSYHBCLY-UHFFFAOYSA-N
496.3	3116086.03599	1.13907414496841	0.885091219605233	0.621976703564459	(Z)-4-methyl-2-pentene	LGAQJENWWYGFSN-PLNGDYQASA-N
726	2671757.22979	0.818609899080706	0.896959470622129	1.46646784218104	1-bromo-3-isobutoxybenzene	QTAHPJXZROQDCU-UHFFFAOYSA-N
929	303189.590494	1.70838187893035	0.946543444925295	1.37430719634175	1-myristyl-2-capryl-3-stearin	DPAYRQOQEIPOIO-UHFFFAOYSA-N
464.739636	3552355.83508	1.01488080116835	0.99852140218554	0.694786828028752	1-pentene	YWAKXRMUMFPDSH-UHFFFAOYSA-N
490	3256694.63824	0.746354054532919	0.976847794442602	1.10206516170474	3-methyl-1-pentene	LDTAOIUHUHHCMU-UHFFFAOYSA-N
766	3837797.66353	0.623342871595869	0.826898044859846	1.54299472166089	methyl 2-aminobenzoate	VAMXMNNIEUEQDV-UHFFFAOYSA-N
570	4689246.23634	0.328299486512394	0.816133471260746	1.56390668300221	1,4-cyclohexadiene	UVJHQYIOXKWHFD-UHFFFAOYSA-N
451.6444	5200428.10455	0.206876160643851	0.822710046250528	1.92450003961644	dichlorofluoromethane	UMNKXPULIDJLSU-UHFFFAOYSA-N
438.99	1972033.0555	0.771340870413049	0.870148666995386	1.35073679114649	perfluoro-4-methyl-2-pentene	SAPOZTRFWJZUFT-UHFFFAOYSA-N
369.290864262	4983269.7138	0.366116175959996	0.837625014983593	1.47881677280616	chlorodifluoromethane	VOPWNXZWBYDODV-UHFFFAOYSA-N
556.439938043	4560145.26424	0.427570811127234	0.795855071859071	1.14806251284973	tetrachloromethane	VZGDMQKNWNREIO-UHFFFAOYSA-N
605	2786003.83146	0.226191318996303	0.828133702146374	2.22542483540299	1,1,3-trimethylcyclohexane	PYOLJOJPIPCRDP-UHFFFAOYSA-N
529.49	1361976.27364	1.60265808417682	0.999961678028876	0.75846514292162	1-butanamine, 1,1,2,2,3,3,4,4,4-nonafluoro-N-(nonafluorobutyl)-N- (trifluoromethyl)-	PSJKAILWKIKKNU-UHFFFAOYSA-N
929	302315.133575	1.6235216505215	0.937374559581303	1.47872253581405	palmitin, 3-lauro-2-myristo-1-	PGZSAELMQZLYOA-UHFFFAOYSA-N
892	2913120.51666	1.27137750753882	0.999779536429495	0.776296318901439	phenanthridine	RDOWQLZANAYVLL-UHFFFAOYSA-N
512	1883772.28558	0.656044808340593	0.833726473768419	1.49491540548553	1,1,2,2,3,3,4,5,5,6-decafluoro-4,6-bis(trifluoromethyl)cyclohexane	LOQGSOTUHASIHI-UHFFFAOYSA-N
533.6	2857551.45039	0.646779838875991	0.967348136422293	1.19832486329504	2,3-dimethyl-1-pentene	LIMAEKMEXJTSNI-UHFFFAOYSA-N
679	3702825.31488	0.386550304509775	0.848834484545665	2.56790242418137	2,5-difluoronitrobenzene	XNJAYQHWXYJBBD-UHFFFAOYSA-N
572	1889304.49364	1.95407131714626	0.842731473006771	0.637223526135723	3,3,4,4,5,5,6,6-octafluoro-2-methyl-2-hexanol	RTFCOQNRRQBMIT-UHFFFAOYSA-N
679	2450555.07005	0.46352188047154	0.846659364171737	2.60358502829604	isobutyl levulinate	WETOYPNHZMSVFZ-UHFFFAOYSA-N
497.7	3322081.88321	1.15662856656607	0.999509106189447	0.625720564676649	2,3-dimethyl-1-butene	OWWIWYDDISJUMY-UHFFFAOYSA-N
607.51	2743491.4144	0.407917922532984	0.807621723082585	1.51910383291832	2,2,3,3-tetramethylpentane	QUKOJKFJIHSBKV-UHFFFAOYSA-N
577.6	2559494.55729	1.11462160160115	0.938870939504697	0.855322600501559	ethyl 2-methylbutanoate	HCRBXQFHJMCTLF-UHFFFAOYSA-N
463.041410922	1984854.07289	1.373197966985	0.999892764695506	0.68567994480024	butane, octafluoro-2,3-bis(trifluoromethyl)-	NBQYGIPVNCVJJP-UHFFFAOYSA-N
597.788082902	3067583.97096	0.186764786790876	0.816415185611032	3.19077783664669	1-methoxy-2-propyl acetate	LLHKCFNBLRBOGN-UHFFFAOYSA-N
592.1	2709448.58883	0.718762449069019	0.845398633536875	1.0941362651841	2,2,3-trimethylhexane	CBVFSZDQEHBJEQ-UHFFFAOYSA-N
596	2209545.76042	1.8478521385766	0.9443278784494	0.728851206445146	bis(tetrafluoropropyl) carbonate	VDLHKDQLOUOMTC-UHFFFAOYSA-N
515	3039134.18052	0.419136199950039	0.639262191114291	1.13792967550011	1,1-dichloro-3,3,3-trifluoropropane	PLTIOZOVDUUXDQ-UHFFFAOYSA-N
378.77324	6346811.23062	0.925582563319876	0.999983399279478	0.544329696448852	carbonyl sulfide	JJWKPURADFRFRB-UHFFFAOYSA-N
687	4641665.79811	1.08339663298297	0.971719174429416	1.16689966912151	N-ethylacetamide	PMDCZENCAXMSOU-UHFFFAOYSA-N
777	4536719.05321	0.725732813054797	0.925638220360147	1.4769528261223	2-chloronaphthalene	CGYGETOMCSJHJU-UHFFFAOYSA-N
937	281260.724209	1.95050869090736	0.97204175248963	1.16391106141536	1-palmityl-2-capryl-3-stearin	IYELSVNFMQXAND-UHFFFAOYSA-N
594.8	3838309.23303	0.268898076932753	0.818100536811136	2.05404411668326	2-nitropropane	FGLBSLMDCBOPQK-UHFFFAOYSA-N
566.121	3116435.47936	0.299174009976467	0.84440139173812	2.6412071990758	ethyl butanoate	OBNCKNCVKJNDBV-UHFFFAOYSA-N
560	3665076.05509	0.237970082578695	0.825023459249296	1.98616920744067	1,1,2,2-tetrachloro-1,2-difluoroethane	UGCSPKPEHQEOSR-UHFFFAOYSA-N
715	3036666.93163	0.451328417065608	0.838132401723973	1.59722987725212	(2-bromoethyl)cyclohexane	JRQAAYVLPPGEHT-UHFFFAOYSA-N
706	1953389.97584	0.786283666927208	0.889107873052053	1.65248031556296	2-cyclohexyloctane	IRKYBYIUHWZQGP-UHFFFAOYSA-N
444.4712	2899040.92254	1.06898242800484	0.998236016969612	0.861056250084717	(Z)-1,1,1,4,4,4-hexafluorobut-2-ene	NLOLSXYRJFEOTA-UPHRSURJSA-N
705.9	4098498.32499	1.13658066515775	0.999950614260893	0.74760886345121	1-phenyl-1-thiaethane	HNKJADCVZUBCPG-UHFFFAOYSA-N
575.370482759	3396372.86448	0.212997054355267	0.83394694375533	2.6390309190637	4-methylpentan-2-one	NTIZESTWPVYFNL-UHFFFAOYSA-N
324.666596	8272861.32859	0.715531106473717	0.997978570748444	0.797094732935636	hydrogen chloride	VEXZGXHMUGYJMC-UHFFFAOYSA-N
483.744613366	2993623.79462	0.784249226133735	0.999668503354343	0.785333753620185	isopropyl nitrite	SKRDXYBATCVEMS-UHFFFAOYSA-N
144.008765	5215833.36198	0.289773679216081	0.906167280605191	1.34216128379198	fluorine	PXGOKWXKJXAPGV-UHFFFAOYSA-N
518.6	3451159.48535	0.954149319583689	0.899312660519629	0.74791372200268	2-chlorobutane	BSPCSKHALVHRSR-UHFFFAOYSA-N
560.611	3608935.9535	0.26146296555488	0.809572704548646	1.78176864758142	1,2-dibromo-2-chloro-1,1,2-trifluroethane	OVZATIUQXBLIQT-UHFFFAOYSA-N
563.6	3068140.70011	0.397152631029564	0.818321524865877	1.55536362798981	(Z)-2,2-dimethyl-3-hexene	JPLZSSHKQZJYTJ-SREVYHEPSA-N
596.7	3754145.06844	0.179478740099909	0.846063938577012	2.61342714429899	1-butanethiol, 2-methyl-	WGQKBCSACFQGQY-UHFFFAOYSA-N
685	3169080.39331	0.982588209809816	0.999993972925797	0.884536874222885	4,7-methano-1H-indene, octahydro-, (3a.alpha.,4.alpha.,7.alpha.,7a.alpha.)-	LPSXSORODABQKT-YNFQOJQRSA-N
737	4343260.90088	0.410137472052135	0.867682002802702	1.84371443124055	1-iodo-2-methylbenzene	RINOYHWVBUKAQE-UHFFFAOYSA-N
689	3603067.99821	0.391807288814759	0.814938715785307	1.91231944472893	3,4-difluoronitrobenzene	RUBQQRMAWLSCCJ-UHFFFAOYSA-N
282.343808027	5041481.12933	0.325697678923433	0.851029290218319	1.16988003214309	ethene	VGGSQFUCUMXWEO-UHFFFAOYSA-N
553.445801656	4075986.30708	0.590623644180666	0.816456967831332	0.98144225398258	cyclohexane	XDTMQSROBMDMFD-UHFFFAOYSA-N
449.961	1692122.75677	1.31119125507307	0.999970643903202	0.773467018338754	pentane, undecafluoro-3-(trifluoromethyl)-	GXSFAIDPYIEIEF-UHFFFAOYSA-N
606.2	3814269.23507	0.720253051352491	0.844401913658771	1.10768727272338	1-nitropropane	JSZOAYXJRCEYSX-UHFFFAOYSA-N
543.499262486	4096536.90959	0.333020958854465	0.814623258915409	1.791444617441	2-hexyne	MELUCTCJOARQQG-UHFFFAOYSA-N
603.3	3671280.94133	1.23391756093605	0.999995193944703	0.565223673376869	1-iodo-2-methylpropane	BTUGGGLMQBJCBN-UHFFFAOYSA-N
539	5169231.82169	0.720112784280816	0.896547234534413	0.976958391633518	2-methyl-2-propenal	STNJBCKSHOAVAJ-UHFFFAOYSA-N
579.434625	5682679.82412	0.777076139660952	0.820406754513599	0.756358345748411	thiophene	YTPLMLYBLZKORZ-UHFFFAOYSA-N
716	2839851.97352	1.4430250823722	0.999720843616834	0.653596003627573	2-methyl-6-(1-methylethyl)phenol	KFETUQFRWIVAMU-UHFFFAOYSA-N
762	3646724.96486	1.26575412760665	0.999983799085153	0.846913766580967	3,4-dichloro-1-nitrobenzene	NTBYINQTYWZXLH-UHFFFAOYSA-N
734	1803581.16857	0.846240899267792	0.923296304613228	1.67293708876573	n-heptyl levulinate	VOOQWFJRTDJMOR-UHFFFAOYSA-N
585	4938872.85162	0.311520795900626	0.865711174822367	2.31511796149221	cyclopentanamine	NISGSNTVMOOSJQ-UHFFFAOYSA-N
868.582092503	2012705.15008	0.927256227633764	0.891269221870814	1.16462247105107	2-bromofluorene	FXSCJZNMWILAJO-UHFFFAOYSA-N
700.96966	3754698.97295	1.09853317040016	0.999987909822376	0.854207823273908	2,6-dimethylphenol	NXXYKOUNUYWIHA-UHFFFAOYSA-N
540.12678	5234363.31505	0.765450266676649	0.861529841420611	0.84790490452466	tetrahydrofuran	WYURNTSHIVDZCO-UHFFFAOYSA-N
507.8	3576107.14283	0.931100413651635	0.801291805411942	0.816729164782294	1-(ethenyloxy)- propane	OVGRCEFMXPHEBL-UHFFFAOYSA-N
512.4	3420312.2988	0.881607766347249	0.89288094262617	0.838673066923787	N,N-dimethylisopropylamine	VMOWKUTXPNPTEN-UHFFFAOYSA-N
730	2710032.23257	2.27189601293166	0.70876458927286	0.360722937622907	1,1dimethoxypropylbenzene	QQRDWBBZZJLZBQ-UHFFFAOYSA-N
643	1039289.00913	1.25522483116236	0.462260136659811	1.31761342943604	dodecanoic acid, tricosafluoro-	CXGONMQFMIYUJR-UHFFFAOYSA-N
482	4252596.28161	0.744626152258611	0.998004076831501	1.00989064266212	ethylcyclopropane	FOTXAJDDGPYIFU-UHFFFAOYSA-N
497	4316887.14448	1.51365299932948	0.830350056602707	0.832633717921898	1,1,1-trifluoro-2-propanol	GILIYJDBJZWGBG-UHFFFAOYSA-N
652	2947560.94754	1.14817121851834	0.998971781868616	0.779516209030904	.beta.-cymene	XCYJPXQACVEIOS-UHFFFAOYSA-N
626	2766889.7255	1.22040062628319	0.615001985167268	0.9445920708938	2-ethyl-4-methyl-1-pentanol	QCHSJPKDWOFACC-UHFFFAOYSA-N
581	3922281.75709	1.21967181098393	0.870441278331569	0.670354601507587	1,1-dimethoxycyclobutane	LLZPXMCHUMPYRH-UHFFFAOYSA-N
541	4522371.6284	0.408271898382869	0.899169360898872	1.90989312085322	N-methylpyrrolidine	AVFZOVWCLRSYKC-UHFFFAOYSA-N
488.242545999	3958973.98177	2.27614719678968	0.997152757612147	0.284693123440029	dimethoxymethane	NKDDWNXOKDWJAK-UHFFFAOYSA-N
378.563282	3618114.92084	0.318325555100419	0.840022821173859	1.75766717252284	1,1,1-trifluoro-2-propene	FDMFUZHCIRHGRG-UHFFFAOYSA-N
569.08	3060409.62873	0.236802449557275	0.833259308794575	2.84044593876856	propyl propanoate	MCSINKKTEDDPNK-UHFFFAOYSA-N
602	3879006.07764	0.456919517520674	0.87316148984457	2.21528715070566	N,N-diethylethane-1,2-diamine	UDGSVBYJWHOHNN-UHFFFAOYSA-N
683	2677838.27702	0.809014308715614	0.847082972867744	1.17486903158249	1,3-dimethyl-5-(1,1-dimethylethyl)benzene	FZSPYHREEHYLCB-UHFFFAOYSA-N
750	5277833.48829	0.616638710188933	0.722000767911021	1.13916669866299	3-chlorophenol	HORNXRXVQWOLPJ-UHFFFAOYSA-N
590.7	3378499.47255	0.402202602699028	0.799902958833547	1.66079068936337	1-octyne	UMIPWJGWASORKV-UHFFFAOYSA-N
524	3497039.7615	0.37374204072796	0.853864546689948	1.70675581994027	2-bromo-2-methylpropane	RKSOPLXZQNSWAS-UHFFFAOYSA-N
936	1370019.7294	1.49699738301063	0.999730998166606	0.833711772035831	1,5-diphenyl-3-(2-phenylethyl)pentane	KWFZVMYLLNFXSD-UHFFFAOYSA-N
482.02	1975391.20168	1.23201319283796	0.995354212636934	0.825874549828687	1-ethoxy-1,1,2,2,3,3,4,4,4-nonafluorobutane	DFUYAWQUODQGFF-UHFFFAOYSA-N
538.2	4285346.58784	1.38188689312273	0.47073626187289	0.862459207700414	S(+)-2-butanol	BTANRVKWQNVYAZ-BYPYZUCNSA-N
509	3295329.7967	0.715161297682239	0.901159342426319	1.10428037202203	(E)-2-hexene	RYPKRALMXUUNKS-HWKANZROSA-N
751	4940763.05648	0.23168495060273	0.836119734011843	2.78727317383355	N,N-dimethylthioformamide	SKECXRFZFFAANN-UHFFFAOYSA-N
858	3367254.92485	1.33253767662094	0.942120311305831	0.705460629119086	(phenylthiomethyl)benzene	LKMCJXXOBRCATQ-UHFFFAOYSA-N
694	3563662.4405	0.361854816640997	0.858308227913227	2.42134060426676	2-methylbenzonitrile	NWPNXBQSRGKSJB-UHFFFAOYSA-N
603	3446465.13426	0.511199088266564	0.886324274690891	1.77243907275541	benzene, 1-chloro-3-(trifluoromethyl)-	YTCGOUNVIAWCMG-UHFFFAOYSA-N
905	424297.292866	1.02109782316642	0.857358997319843	2.43548684749158	1-capryl-2-lauryl-3-myristin	IGFLMGKVDGKBEZ-UHFFFAOYSA-N
578	1413598.72437	0.825995876938963	0.89100409640354	1.93913026993949	1,1,1,2,2,3,3,4,4-nonafluorododecane	XUFPCAMLAPZMPS-UHFFFAOYSA-N
597.6	5285119.40915	1.15959499858559	0.999953639120322	0.866108170746971	2-methoxyethan-1-ol	XNWFRZJHXBZDAG-UHFFFAOYSA-N
951	1350335.73924	1.18445268592974	0.909723197778215	1.67498422242196	dibenzo-24-crown-8	UNTITLLXXOKDTB-UHFFFAOYSA-N
572.313826	3481203.09983	0.613515888068679	0.834733549296844	1.02401890475696	methylcyclohexane	UAEPNZWRGJTJPN-UHFFFAOYSA-N
803	4167332.36301	1.75208991505047	0.00051722165519472	0.489459746329509	2,3-dichlorophenol	UMPSXRYVXUPCOS-UHFFFAOYSA-N
583	4049618.28394	1.12138857422393	0.895892150620936	0.775045247063861	1,3-dioxolane, 2-ethyl-2-methyl-	UPZFLZYXYGBAPL-UHFFFAOYSA-N
546.682600407	3353327.87726	0.218147028263183	0.816062752863404	2.55618824497793	ethyl propanoate	FKRCODPIKNYEAC-UHFFFAOYSA-N
944	259431.487828	1.77061788417555	0.885300434108391	1.34666559292266	1-palmityl-2-lauryl-3-stearin	QJGLEJCXGFQHJV-UHFFFAOYSA-N
410.309369451	4053147.34409	0.21913450028324	0.838954604877791	2.07755459182281	1-chloro-1,1-difluoroethane	BHNZEZWIUMJCGF-UHFFFAOYSA-N
593.46	2719104.18988	0.231812809458546	0.832134692237196	2.86210926361733	propyl butanoate	HUAZGNHGCJGYNP-UHFFFAOYSA-N
462.72	2365938.4944	0.573545071763666	0.809558129777239	1.43249166002455	tert-perfluorobutyl methyl ether	OZARLADOWXUKIQ-UHFFFAOYSA-N
629	3300109.01028	0.734220637679793	0.912497102360849	1.77449932095449	1-methylpropyl hydroxyethanoate	BIGVSMRJOBZZNM-UHFFFAOYSA-N
551.37964	3985454.41094	0.445537677137823	0.888457985820521	2.02833981188301	2-methylpropyl methanoate	AVMSWPWPYJVYKY-UHFFFAOYSA-N
656	3311591.33499	0.435004220200006	0.811421055364551	1.563934392144	dl-3-methylcyclohexanone	UJBOOUHRTQVGRU-UHFFFAOYSA-N
718	2528237.21719	1.93800032601671	0.908849705612041	0.416965746947386	(1-methyl-1-propoxyethyl)benzene	PLWOFDYJSDGEAT-UHFFFAOYSA-N
637	4270329.93382	1.0801310632015	0.870861040833244	0.734783768698536	N-methylcyclohexylamine	XTUVJUMINZSXGF-UHFFFAOYSA-N
126.206891159	3398217.289	0.127192188535626	0.891188980616533	1.99727664374937	nitrogen	IJGRMHOSHXDMSA-UHFFFAOYSA-N
411.98	5175911.51114	1.02593686182931	0.911257561066061	0.632201145986404	bromodifluoromethane	GRCDJFHYVYUNHM-UHFFFAOYSA-N
506.51	4733405.57305	1.14940242281099	0.999996982003936	0.716252072339245	methyl ethanoate	KXKVLQRXCPHEJC-UHFFFAOYSA-N
150.717982391	4854796.48405	0.33932187380317	0.86113893776623	0.82518591483416	argon	XKRFYHLGVUSROY-UHFFFAOYSA-N