Tc	Pc	c0	c1	c2	name	inchikey
498.57	4818528.46682	1.59653516289512	0.995617565467223	0.756175376511499	2,2,2-trifluoroethanol	RHQDFWAXVIIEBN-UHFFFAOYSA-N
652.5	2950362.47847	1.1648230904561	0.987594521211726	0.737981080315813	(1-methylpropyl)benzene	ZJMWRROPUADPEA-UHFFFAOYSA-N
154.644827133	5042980.78493	0.240606237579401	0.88952978385671	1.26781564961432	oxygen	MYMOFIZGZYHOMD-UHFFFAOYSA-N
531.133388	2944344.23103	0.343045800899602	0.814397124569143	1.54737841759593	2,2,3-trimethylbutane	ZISSAWUMDACLOM-UHFFFAOYSA-N
509.3	3258088.95961	1.0018858719716	0.923188929455024	0.772016779994222	2-methyl-2-pentene	JMMZCWZIJXAGKW-UHFFFAOYSA-N
425.156714148	3793718.96426	0.465153323156917	0.847493294686681	1.20103761626744	butane	IJDNQMDRQITEOD-UHFFFAOYSA-N
490.20982	5559371.04512	0.928036279341961	0.856026337957914	0.68311029175374	furan	YLQBMQCUIZJEEH-UHFFFAOYSA-N
421	2401081.17359	0.985738961642719	0.975423638159845	0.939317868961467	perfluorocyclopentane	PWMJXZJISGDARB-UHFFFAOYSA-N
667	1673193.65668	1.14988329676854	0.999281265239994	1.00308442997466	pentane, 2-pentoxy-2,4,4-trimethyl-	ZNFVRHLUNVCECG-UHFFFAOYSA-N
730	2037912.54489	0.625534659783413	0.806237128308145	1.63297916444923	4-methoxybenzoic acid, methyl ester	DDIZAANNODHTRB-UHFFFAOYSA-N
701	2954197.77326	1.26073799323744	0.808215428633002	0.591185504565328	(1-methoxy-1-methylethyl)benzene	MRFQFQYRTNGOCZ-UHFFFAOYSA-N
950	236064.891432	1.65555539331963	0.905770983182017	1.48237584029553	octadecanoic acid, 2-[(1-oxohexadecyl)oxy]-3-[(1-oxotetradecyl)oxy]propyl ester	JTDPHURHZMZJHD-UHFFFAOYSA-N
560	4262097.10761	1.04991344322278	0.997928231304553	0.755802816044824	3-methylbutanal	YGHRJJRRZDOVPD-UHFFFAOYSA-N
882	2481675.54317	0.497827844979436	0.815236371933643	1.77986924040436	4-methylphenanthrene	LOCGAKKLRVLQAM-UHFFFAOYSA-N
714	3245183.69076	0.259540626494715	0.818751890468285	2.68699942637289	1,1-dimethylethyl benzoate	LYDRKKWPKKEMNZ-UHFFFAOYSA-N
190.562942605	4606885.33571	0.152824010202571	0.909319677052752	1.80563830691598	methane	VNWKTOKETHGBQD-UHFFFAOYSA-N
862	5469989.93158	0.650883484472312	0.945609064464941	1.38908556909553	N-(cyclopropylmethyl)-imidazole	BSRRKSSFRABLLB-UHFFFAOYSA-N
1871.26413627	9272044.74264	0.10891158483703	0.936117991722902	1.1373996241421	cesium	TVFDJXOCXUVLDH-UHFFFAOYSA-N
646	2606752.87982	1.16661132221636	0.999727802038421	0.770905867082792	1,3-dibromobutane	XZNGUVQDFJHPLU-UHFFFAOYSA-N
891	2678583.64719	0.339885120858632	0.814430650736882	2.36806276793377	2-phenylnaphthalene	TURIHPLQSRVWHU-UHFFFAOYSA-N
505.7	3123420.29218	1.07692250025154	0.965633098997072	0.705470753998993	2-ethyl-1-butene	RYKZRKKEYSRDNF-UHFFFAOYSA-N
517	5954874.47425	0.177575203779509	0.855882720106727	2.45763771454628	oxetane	AHHWIHXENZJRFG-UHFFFAOYSA-N
809	1354736.84356	1.43407755186815	0.999357474311092	0.993378762214668	1,2,3,4-tetrahydro-2,6-dimethyl-7-octylnaphthalene	QXCGTKPQXLLOQZ-UHFFFAOYSA-N
556.9	4268437.82182	0.209499809179919	0.852034852234451	2.51696506203831	1,4-difluorobenzene	QUGUFLJIAFISSW-UHFFFAOYSA-N
825	4902346.60913	0.776683158883209	0.849513691629135	0.908889294896405	1-bromo-2-iodobenzene	OIRHKGBNGGSCGS-UHFFFAOYSA-N
612.1	2561054.06853	0.37739024071747	0.853339570134066	2.49618397563893	butyl butanoate	XUPYJHCZDLZNFP-UHFFFAOYSA-N
740	3152287.33462	1.50181145612151	0.992923654908319	0.637671076368181	2-tert-amylphenol	BGRKGHSKCFAPCL-UHFFFAOYSA-N
829	13793394.7484	0.750981321758151	0.923692906297847	1.66935293453715	1H-imidazole	RAXXELZNTBOGNW-UHFFFAOYSA-N
877	3024296.91455	0.584293156054116	0.828991100154877	1.54758492880286	9(9H)-fluorenone	YLQWCDOCJODRMT-UHFFFAOYSA-N
807	899430.959157	0.963742341990494	0.896492015934675	1.93856087086284	(4-octyldodecyl)cyclopentane	LEMCTUNZNGDMNT-UHFFFAOYSA-N
597.38	2949171.44042	0.261500662251323	0.833405720857327	2.83786252689344	butyl 2-propenoate	CQEYYJKEWSMYFG-UHFFFAOYSA-N
467	6670801.19382	0.215306479113566	0.86150423147151	1.7170900272148	cyclobutene	CFBGXYDUODCMNS-UHFFFAOYSA-N
619	5863538.39217	0.411760090210868	0.861502349133766	1.88706917446689	1-methyl-1H-pyrazole	UQFQONCQIQEYPJ-UHFFFAOYSA-N
652	2828906.13495	0.36914642163117	0.800493284698891	1.66327856963248	1,1-dimethylethylcyclohexane	XTVMZZBLCLWBPM-UHFFFAOYSA-N
533	9649986.99604	0.264550414043935	0.855728298440447	2.45991109733085	azacyclopropane	NOWKCMXCCJGMRR-UHFFFAOYSA-N
789	3107073.99417	0.142551515074734	0.78823864382841	2.25959265777602	5-methyl-2-nitrophenol	NQXUSSVLFOBRSE-UHFFFAOYSA-N
786	1580517.23211	1.06718951333137	0.951649706881626	1.3243317179761	3-butyl-4-hexylbicyclo[4.3.0]nonane	AZGPNRBWIVZVPD-UHFFFAOYSA-N
507	3523296.1566	0.532300410423794	0.923693627366525	1.66925883783715	(E)-3-methyl-2-pentene	BEQGRRJLJLVQAQ-GQCTYLIASA-N
550.8	6794577.4468	0.907688895336798	0.999983165805533	0.867411736713184	1,3-oxazole	ZCQWOFVYLHDMMC-UHFFFAOYSA-N
687.8	2075269.6835	0.367984749771484	0.792917772397898	2.36320480125523	2-undecanone	KYWIYKKSMDLRDC-UHFFFAOYSA-N
699	4491645.39343	0.593239629433572	0.855523255850314	1.21215790545555	1,2-dichlorobenzene	RFFLAFLAYFXFSW-UHFFFAOYSA-N
895	2120109.4551	1.33575654664649	0.880959774409394	1.06360727282374	1-amino-2,4,6-trinitrobenzene	IAHOUQOWMXVMEH-UHFFFAOYSA-N
590	3473796.53539	0.831984124417126	0.929240725039682	1.26543335534636	bromopentafluorobenzene	XEKTVXADUPBFOA-UHFFFAOYSA-N
458	2220385.49469	0.866706949721001	0.859001211055458	1.23781772331703	1-methoxy-nonafluorobutane	OKIYQFLILPKULA-UHFFFAOYSA-N
849	2392022.10882	1.89154867627057	0.905901773848972	0.570722530629668	4-(1-methyl-1-phenylethyl)phenol	QBDSZLJBMIMQRS-UHFFFAOYSA-N
819	3980375.06672	0.361759949422768	0.864631643827276	2.33015013571891	2-bromonaphthalene	APSMUYYLXZULMS-UHFFFAOYSA-N
629.6	2875618.99811	0.358133562989232	0.857092937534594	2.35505409767306	2-(1-methylpropylthio)butane	IEBAOPMEYUWQPD-UHFFFAOYSA-N
717	4417536.2366	0.285557428789396	0.82623191657654	1.95826129435059	(+)-fenchone	LHXDLQBQYFFVNW-XCBNKYQSSA-N
378	3087999.98721	0	0.378626717074418	0.917019139520905	perfluoromethyl vinyl ether	FPDZOFFZSWSOSL-UHFFFAOYSA-N
629	2234334.31066	2.12150236358499	0.998827924013916	0.428323052980279	1-methylethyl hexanoate	JSHDAORXSNJOBA-UHFFFAOYSA-N
706	2839074.22376	0.336374173205881	0.809445368918924	2.41754993856669	ethyl phenylacetate	DULCUDSUACXJJC-UHFFFAOYSA-N
381.25	3353262.06392	0.624446641166157	0.829779350796778	1.07568973009612	pentafluoro(trifluoromethyl)sulfur	QIYZKVMAFMDRTP-UHFFFAOYSA-N
637	4736663.18292	0.805836767495257	0.915282690132389	0.878262302829247	2-methylthiacyclopentane	AJPGNQYBSTXCJE-UHFFFAOYSA-N
546	2830932.47882	0.372093791481172	0.836827144013604	1.8847447692389	1,1-dimethylpropyl ethyl ether	KFRVYYGHSPLXSZ-UHFFFAOYSA-N
689	2502376.90637	1.13633805098591	0.999958159392402	0.896524188417594	1,2-dichlorooctane	LYVLPCUIYWOEBI-UHFFFAOYSA-N
700	4015345.72087	1.25637044404289	0.999858547635195	0.711596279500214	N,N-dimethyl-2-pyridinamine	PSHKMPUSSFXUIA-UHFFFAOYSA-N
694	2877475.9963	0.596437420528349	0.886673219005106	2.04892204010138	l-carvone	ULDHMXUKGWMISQ-SECBINFHSA-N
608	3674237.52325	1.60693763483659	0.998851311488977	0.731053676990904	(Z)-3-hexen-1-ol	UFLHIIWVXFIJGU-ARJAWSKDSA-N
694	3097716.5377	0.505280751557285	0.830607229953338	2.89055554881717	2-ethylheptanoic acid	DYWSVUBJGFTOQC-UHFFFAOYSA-N
386.368029119	2315392.61245	0.998373867723136	0.99851544731336	0.905892589521318	decafluorobutane	KAVGMUDTWQVPDF-UHFFFAOYSA-N
720	2568828.57167	0.65148938096465	0.800990734236285	1.52097090484751	2-(1,1-dimethylethyl)-5-methylphenol	XOUQAVYLRNOXDO-UHFFFAOYSA-N
697	4947815.21808	1.10284257249076	0.99723487101444	0.692661920050961	3-bromopyridine	NYPYPOZNGOXYSU-UHFFFAOYSA-N
679.8	3000086.21917	1.28776729731348	0.990774012197328	0.932206474515166	2-(2-propoxyethoxy)ethanol	DJCYDDALXPHSHR-UHFFFAOYSA-N
830	3175938.24667	0.333329441591495	0.810378195168407	2.30484185064688	benzophenone	RWCCWEUUXYIKHB-UHFFFAOYSA-N
535.5	4158400.6631	1.06886416193067	0.998748071918247	0.789508939340288	methyl propenoate	BAPJBEWLBFYGME-UHFFFAOYSA-N
558.5	3013345.36436	1.05183708610999	0.999990406787356	0.784939156271152	2,4,4-trimethyl-2-pentene	LAAVYEUJEMRIGF-UHFFFAOYSA-N
779	1053859.31029	1.31453265091359	0.971481007529659	1.16663044929172	10-methyleicosane	BFAGLVWBOUDHBS-UHFFFAOYSA-N
518.082276909	4680047.36598	0.738996262184619	0.99973992262623	0.875444991896399	propyl nitrite	KAOQVXHBVNKNHA-UHFFFAOYSA-N
542	2135761.14121	0.249711601972419	0.825650518916032	2.99083210826071	1,2-diethoxyethane	LZDKZFUFMNSQCJ-UHFFFAOYSA-N
822	4955896.80669	2.49610482720036	0.645320164087823	0.290741499576407	N-(2-methylpropyl)-imidazole	NPOZBHCPELPGKW-UHFFFAOYSA-N
657	4836374.20021	1.25979990581148	0.854881504552256	0.920304620439113	2-chloropropanoic acid	GAWAYYRQGQZKCR-UHFFFAOYSA-N
541.2	3038806.64997	0.191966526306721	0.832786700256328	2.84965347353845	1,1-dimethylethyl ethanoate	WMOVHXAZOJBABW-UHFFFAOYSA-N
715	3729035.1487	1.17582576790885	0.999996309255738	0.815947944752746	bis(2-bromoethyl)ether	FOZVXADQAHVUSV-UHFFFAOYSA-N
705	1540943.74987	0.475828980409843	0.810651608678425	2.38310814522	1-pentadecene	PJLHTVIBELQURV-UHFFFAOYSA-N
531.098349538	3346364.79045	0.84938203096786	0.87110978236348	1.03754518881152	1-methylethyl ethanoate	JMMWKPVZQRWMSS-UHFFFAOYSA-N
500.172094451	2832298.65589	1.27814476430665	0.999999162357855	0.641724804015263	diisopropyl ether	ZAFNJMIOTHYJRJ-UHFFFAOYSA-N
668	3674677.16922	0.484934145898221	0.835220130272093	1.63452464224243	1,4-dioxaspiro[4.5]decane	GZGPRZYZKBQPBQ-UHFFFAOYSA-N
691.573842144	3581349.7259	0.29848556539773	0.807464734409243	1.99061473118865	benzonitrile	JFDZBHWFFUWGJE-UHFFFAOYSA-N
770	1392904.41091	1.43864767091061	0.999678986115313	0.945024264994828	2-butyl-1-hexylhexahydroindan	OBZNUBKKZWNPIK-UHFFFAOYSA-N
587.661	3041455.23747	0.495134026211151	0.832490959891814	1.30062283623194	trans-1,4-dimethylcyclohexane	QRMPKOFEUHIBNM-ZKCHVHJHSA-N
551	3344081.37692	0.292136454585676	0.838940867665129	1.88537195512566	(1R,3R)-1,3-dimethylcyclopentane	XAZKFISIRYLAEE-RNFRBKRXSA-N
456.484796923	5642631.06161	1.47649614734749	0.999976960108288	0.501659185334859	ethylamine	QUSNBJAOOMFDIB-UHFFFAOYSA-N
448.915352542	2820267.38099	0.156645408711225	0.847838162276243	2.58416290021106	tetramethylsilane	CZDYPVPMEAXLPK-UHFFFAOYSA-N
778	3885264.94286	0.647682488295774	0.762792267187383	1.31542051850427	7-methylquinoline	KDYVCOSVYOSHOL-UHFFFAOYSA-N
603	4724487.67774	0.203400468894838	0.854516927735072	2.47844788157423	chlorocyclopentane	NDTCXABJQNJPCF-UHFFFAOYSA-N
549.691	3383133.95103	0.189627170943482	0.830325416568745	2.89713098666867	propyl ethanoate	YKYONYBAUNKHLG-UHFFFAOYSA-N
512.731536174	3371002.03625	0.204916829442144	0.84611394822788	2.61259258151014	butyl methyl ether	CXBDYQVECUFKRK-UHFFFAOYSA-N
491.290252	3257632.36166	0.345314511660313	0.845076767396062	2.62947620460786	trifluoroethanoic acid	DTQVDTLACAAQTR-UHFFFAOYSA-N
594.5	2952252.7435	0.257482745530357	0.830960831411213	2.88380985210359	butyl propanoate	BTMVHUNTONAYDX-UHFFFAOYSA-N
510.7	2755561.06668	0.7471069067578	0.898569527373056	1.91626696794442	2,2-diethoxypropane	FGQLGYBGTRHODR-UHFFFAOYSA-N
667	3348683.00307	0.614141885179824	0.878559502110645	1.35265459026219	1-chloro-2-ethylbenzene	CVGAWKYSRYXQOI-UHFFFAOYSA-N
557	4632243.63601	0.323644708908649	0.806701327622572	1.82095203024067	dimethyl carbonate	IEJIGPNLZYLLBP-UHFFFAOYSA-N
563	3869574.6044	0.246531199745896	0.872682596114978	2.22124503976729	isopropenylnitrile	GYCMBHHDWRMZGG-UHFFFAOYSA-N
830	898050.375432	1.79149362594507	0.998774527650271	0.94650991202201	1,1-diphenyltetradecane	RHISRDQWNQEBBY-UHFFFAOYSA-N
757	2202477.32846	0.937141188244704	0.847606632275923	1.06751727320789	(1-cyclohexyloxyethyl)benzene	BLBRFFGNEDJWMZ-UHFFFAOYSA-N
576	1409483.32261	0.651075824826177	0.864312850026545	2.33476348947835	1,1,2,2,3,3,4,4,5,5,6,6-dodecafluoro-7-(1,1,2,3,3,3-hexafluoropropoxy)heptane	ZJIABALXPUNTFM-UHFFFAOYSA-N
799	1652744.2075	1.00079485526686	0.927254960635433	1.61467457260781	6-butyl-7-hexyl-1,2,3,4-tetrahydronaphthalene	QKAUPJCSSOTPHK-UHFFFAOYSA-N
820	4066072.16167	0.930414634364062	0.930817629891487	1.43413843594573	diphenyl carbonate	ROORDVPLFPIABK-UHFFFAOYSA-N
718	3502008.18892	0.588989482421183	0.446830725100297	1.41392361353617	N,N,N'-trimethylurea	COSWCAGTKRUTQV-UHFFFAOYSA-N
799	1253992.32131	1.40906482170021	0.999687347041022	0.950166185198882	2,6-dimethyl-3-octyldecahydronaphthalene	WYHUFBHZXGAZJH-UHFFFAOYSA-N
539.2	4010410.57486	0.297455402611095	0.82391873063397	1.81794851760346	1-chlorobutane	VFWCMGCRMGJXDK-UHFFFAOYSA-N
705	2285778.88612	0.422821756445719	0.837152546512736	2.76831129910867	pentyl levulinate	NLDFWNCRMVSDMC-UHFFFAOYSA-N
664.419752	3453041.69354	1.0055574754698	0.966971829209737	0.881749959049167	1,2,3-trimethylbenzene	FYGHSUNMUKGBRK-UHFFFAOYSA-N
640	2936967.29522	1.04183224474449	0.945273920002195	1.08845344493697	1,3-dioxolane, 2-methyl-2-pentyl-	OUQPLRDJDIOBOU-UHFFFAOYSA-N
666.9	3449923.33858	0.301888977597728	0.848686862157175	2.39636861414645	1-iodohexane	ANOOTOPTCJRUPK-UHFFFAOYSA-N
620	3427126.52631	0.915730926442661	0.361396400630481	0.667184457244689	trans-bicyclo[3.3.0]octane	AEBWATHAIVJLTA-ZKCHVHJHSA-N
594	4066767.24604	1.60147789248572	0.983345819362724	0.454700105652503	bicyclo[4.1.0]heptane	WPHGSKGZRAQSGP-UHFFFAOYSA-N
841	2810005.20598	1.18133351235777	0.9127158891032	1.02181416311229	1,4,7,10,13,16-hexaoxacyclooctadecane	XEZNGIUYQVAUSS-UHFFFAOYSA-N
577	3643153.87755	1.39287175242736	0.997204289960519	0.580057253583874	trichloronitromethane	LFHISGNCFUNFFM-UHFFFAOYSA-N
518.66	1951481.81365	0.213137496095368	0.830954907675572	2.88421011186908	hexamethyldisiloxane	UQEAIHBTYFGYIE-UHFFFAOYSA-N
826	3119193.37988	1.12374943697777	0.961458675175568	0.864570822790622	9-methyl-9H-fluorene	ZVEJRZRAUYJYCO-UHFFFAOYSA-N
134.184713774	3707797.66664	0.99381853779107	0.999990495519609	0.416561551016153	carbon monoxide	UGFAIRIUMAVXCW-UHFFFAOYSA-N
292.854887035	3022189.88106	0.506824734022432	0.82682838177084	1.22430491279016	hexafluoroethane	WMIYKQLTONQJES-UHFFFAOYSA-N
354.49	3356765.81184	0.098491967785899	0.819102438835716	3.12012921975515	(difluoromethoxy)trifluoromethane	ACYQYBAHTSKBLM-UHFFFAOYSA-N
691	3042623.0239	0.215863001275897	0.812515041378103	2.68215236180109	1,6-dichlorohexane	OVISMSJCKCDOPU-UHFFFAOYSA-N
498.4	4115789.74539	0.6428085623457	0.998771035793369	1.00214422091625	1-pentyne	IBXNCJKFFQIKKY-UHFFFAOYSA-N
621	2908034.52775	0.419221762047329	0.818218098273256	1.56636021371857	(1R,3S)-1-ethyl-3-methylcyclohexane	UDDVMPHNQKRNNS-DTWKUNHWSA-N
451.098582813	1879090.01541	0.24927180140286	0.828791602924852	2.92736707722337	perfluorohexane	ZJIJAJXFLBMLCK-UHFFFAOYSA-N
638	4762932.89533	0.72024154282294	0.886688083087237	2.048811411335	2-butenoic acid	LDHQCZJRKDOVOX-UHFFFAOYSA-N
569.88334	2450509.17197	0.61150875815597	0.824808938654967	1.28179037010188	2,2,5-trimethylhexane	HHOSMYBYIHNXNO-UHFFFAOYSA-N
652	4160982.21924	0.670658552740312	0.823341344700909	0.996335638816132	1-bromo-3-fluorobenzene	QDFKKJYEIFBEFC-UHFFFAOYSA-N
773	2535111.50151	0.762422255824454	0.831711780652338	1.44468093570752	.gamma.-decalactone	IFYYFLINQYPWGJ-UHFFFAOYSA-N
595	3333016.52043	0.179813245551626	0.847628464684226	2.58759154515538	1-ethyl-1-methylcyclopentane	LETYIFNDQBJGPJ-UHFFFAOYSA-N
674.4	2777931.14542	1.52692960742648	0.999988151490292	0.940284095056483	2-ethylhexanoic acid	OBETXYAYXDNJHR-UHFFFAOYSA-N
704	4152740.63478	0.411070951797584	0.813663661261713	1.65687328001473	2,3-dihydrobenzo[b]furan	HBEDSQVIWPRPAY-UHFFFAOYSA-N
810	891183.936647	1.23144014014166	0.940122543998278	1.44832622344683	9-(2-cyclohexylethyl)heptadecane	XILMXSAQVLYDBO-UHFFFAOYSA-N
568	4319562.36375	0.623087299917464	0.887918815684704	2.03450194063966	1-chloro-2-propanol	YYTSGNJTASLUOY-UHFFFAOYSA-N
709	3214008.69744	1.09495712287447	0.998916751213242	0.728916342004943	cyclodecane	LMGZGXSXHCMSAA-UHFFFAOYSA-N
543.61	5119163.83485	2.01280829651341	0.629703433893717	0.344337910511781	2-methylpropanal	AMIMRNSIRUDHCM-UHFFFAOYSA-N
740	1328784.47907	1.22973694179728	0.969030561145392	1.18625132002382	dioctylamine	LAWOZCWGWDVVSG-UHFFFAOYSA-N
485	3493990.76633	0.174868349420429	0.84949961808639	2.5572700534011	1,1,1-trichloro-2,2,2-trifluoroethane	BOSAWIQFTJIYIS-UHFFFAOYSA-N
879	4727385.70568	1.33601798612102	0.903123334421226	0.50866782773916	1,3-diiodobenzene	SFPQFQUXAJOWNF-UHFFFAOYSA-N
750	2123183.26812	0.776512335679916	0.755205655262566	1.46094207545695	1,11-Diaminoundecane	KLNPWTHGTVSSEU-UHFFFAOYSA-N
632.620797328	4509147.48722	0.381062144119043	0.81802323770449	1.45853329330199	chlorobenzene	MVPPADPHJFYWMZ-UHFFFAOYSA-N
668	2693210.43618	0.633702250722499	0.590688205807167	1.17672491932538	3,7-dimethyl-1,6-octadien-3-ol	CDOSHBSSFJOMGT-UHFFFAOYSA-N
767	2004217.85077	1.01655048863576	0.740128962939294	1.15311375033981	1,12-dodecanediamine	QFTYSVGGYOXFRQ-UHFFFAOYSA-N
704	4733398.96938	0.794334345370237	0.887601138812198	0.96065078500606	1,4-fluoroiodobenzene	KGNQDBQYEBMPFZ-UHFFFAOYSA-N
634.9	2144883.47947	0.624473386020292	0.803657850942872	1.64650968940634	heptyl ethanoate	ZCZSIDMEHXZRLG-UHFFFAOYSA-N
352.979534914	3138566.92454	0.461023009774162	0.822539621961563	1.29868940961497	1-chloro-1,1,2,2,2-pentafluoroethane	RFCAUADVODFSLZ-UHFFFAOYSA-N
474.9	3812775.4503	0.712802134347909	0.848471355065311	0.898518513079635	2-methyl-1,3-butadiene	RRHGJUQNOFWUDK-UHFFFAOYSA-N
712	3435753.95345	1.00126651781184	0.924593930686895	0.872380883246518	1,3,5-trichlorobenzene	XKEFYDZQGKAQCN-UHFFFAOYSA-N
638	3255096.65746	0.222814623648236	0.8405180833969	2.70464673747645	1-ethyl-3-methylbenzene	ZLCSFXXPPANWQY-UHFFFAOYSA-N
784	1297533.44455	1.47247389276506	0.999732095719204	0.967856866748874	3-butyl-10-hexylbicyclo[4.4.0]decane	JSFODJXKGRSKEU-UHFFFAOYSA-N
621	3783416.0669	0.422305301601125	0.817870352161726	1.32324278419945	4-ethenylcyclohexene	BBDKZWKEPDTENS-UHFFFAOYSA-N
746	2396368.81699	1.43681095852431	0.999860828158039	0.693472341631018	2,6-di-tert-butylphenol	DKCPKDPYUFEZCP-UHFFFAOYSA-N
718	2875635.43727	1.0405604184868	0.758800506811297	0.859229243558957	2-tert-butyl-1-hydroxybenzene	WJQOZHYUIDYNHM-UHFFFAOYSA-N
474.9	3729393.82789	0.78376201659249	0.988430817536644	0.972556757054268	N,N-dimethylethanamine	DAZXVJBJRMWXJP-UHFFFAOYSA-N
680	2809308.58227	1.28519643900339	0.999518971131015	0.592178622419737	spiro[5.4]decane	CTDQAGUNKPRERK-UHFFFAOYSA-N
814	5722922.53111	1.67055494036848	0.888495244874508	0.375440652183914	N-(1-methylethyl)-imidazole	IPIORGCOGQZEHO-UHFFFAOYSA-N
499.529145183	3753985.2956	1.62168488805983	0.999983689680926	0.450772691888822	diethylamine	HPNMFZURTQLUMO-UHFFFAOYSA-N
711	1584207.49743	1.3938561529463	0.998546044442084	0.835919419530508	octylcyclohexane	FBXWCEKQCVOOLT-UHFFFAOYSA-N
662	3978097.47577	1.23963066866337	0.999966429593181	0.731034655952952	1-methoxy-2-methylbenzene	DTFKRVXLBCAIOZ-UHFFFAOYSA-N
614	5966425.67003	0.843821188056123	0.97290767708383	1.1583320394158	4-methylene-2-oxetanone	WASQWSOJHCZDFK-UHFFFAOYSA-N
497.71	3201041.59133	0.407299808814225	0.850051651756673	1.56320239950545	chlorotrimethylsilane	IJOOHPMOJXWVHK-UHFFFAOYSA-N
796	1915663.71759	1.48875625744727	0.473503640035657	0.716688035960524	1-o-tolyl-1-p-tolylethane	BCWGQRUFPICUKK-UHFFFAOYSA-N
788	963382.304247	1.56343715328635	0.999463802617687	0.976333788965929	9-hexylheptadecane	ZUSMXUXZJCOSPV-UHFFFAOYSA-N
806	2455750.50459	1.41687949260891	0.945563092098098	0.855251438710689	2,2-diphenyl-1,3-dioxolane	HRTCGZZYZFEBHO-UHFFFAOYSA-N
814	1161749.10367	2.49710627949524	0.923314652230872	0.446468639393158	3-butyl-4-hexylbicyclo[4.4.0]decane	JYUNEDWDLIQLBW-UHFFFAOYSA-N
588.92	3203038.59351	1.18588894692691	0.86908825758793	0.725187413326922	methyl pentanoate	HNBDRPTVWVGKBR-UHFFFAOYSA-N
553	3469839.34917	0.567264271504943	0.923662251798527	1.66964343929146	1-fluoro-4-(trifluoromethyl)benzene	UNNNAIWPDLRVRN-UHFFFAOYSA-N
432.964311514	4084315.45477	0.624310496649749	0.836239273544414	0.936112795478967	trimethylamine	GETQZCLCWQTVFV-UHFFFAOYSA-N