Tc	Pc	c0	c1	c2	name	inchikey
572	3798545.19849	0.229696573824309	0.810385262924491	3.33014496424136	(S)-(-)-2-methyl-1-butanol	QPRQEDXDYOZYLA-YFKPBYRVSA-N
866	3359969.30434	0.753335308742289	0.905301726058396	1.84611824653581	2-ethylanthracene	ZXAGXLDEMUNQSH-UHFFFAOYSA-N
647	5053575.22325	0.381470814440804	0.789596970198722	1.41379398353135	1,3,5,7-cyclooctatetraene	KDUIUFJBNGTBMD-BONZMOEMSA-N
627	3139906.79888	1.93377782264517	0.821367972746819	0.513191528599471	(.+-.)-1,2-epoxyoct-7-ene	UKTHULMXFLCNAV-UHFFFAOYSA-N
485	3286925.841	0.504060657616982	0.923788428895196	1.66773271384776	1,3-dichloro-1,1,2,2,3-pentafluoropropane	UJIGKESMIPTWJH-UHFFFAOYSA-N
624	3884389.32186	0.391976434716718	0.763875461672407	1.89278146310315	benzene, pentafluoroiodo-	OPYHNLNYCRZOGY-UHFFFAOYSA-N
631.9	1987382.21272	0.712097517993579	0.797666780185207	1.35376927416836	2-methyldecane	CNPVJWYWYZMPDS-UHFFFAOYSA-N
570	2422548.40969	0.124546968944655	0.811945297086098	3.29408951787623	2,6-dimethyl-1-heptene	JUUMAEXLYIMEOD-UHFFFAOYSA-N
661.7	2127905.93039	0.503810540827909	0.844050851328583	2.64688996003431	methyl decanoate	YRHYCMZPEVDGFQ-UHFFFAOYSA-N
713	1447675.68594	0.449287416563331	0.829230012059614	2.91836036764576	1-methylethyl dodecanoate	UJPPXNXOEVDSRW-UHFFFAOYSA-N
791	2984120.84637	0.550498928320204	0.823322004599124	1.56689187618756	2-chloro-1,1'-biphenyl	LAXBNTIAOJWAOP-UHFFFAOYSA-N
591	1521460.77264	0.695351977436788	0.846428864132953	2.60712501636762	1-decanol, 3,3,4,4,5,5,6,6,7,7,8,8,9,9,-heptadecafluoro	JJUBFBTUBACDHW-UHFFFAOYSA-N
637.3	1995289.31223	0.7399107375609	0.802368220869478	1.31566266433271	1-undecene	DCTOHCCUXLBQMS-UHFFFAOYSA-N
745	2815552.01265	0.825007865912357	0.918906133422209	1.71337418412775	1-bromo-2-(2-methoxyethoxy)benzene	YQNVKSQBACJWHD-UHFFFAOYSA-N
507	7210180.71105	0.329426079276412	0.819868584353693	1.9865668860276	cyclopropanamine	HTJDQJBWANPRPF-UHFFFAOYSA-N
881	3816587.55509	0.795400940141544	0.886223333383029	2.05396618118007	p-nitrobenzamide	ZESWUEBPRPGMTP-UHFFFAOYSA-N
787	2647611.11013	0.744542758672397	0.887153883877701	1.22774246597686	cyclododecanone	SXVPOSFURRDKBO-UHFFFAOYSA-N
841	4623264.20405	1.66469649410627	0.999940153714581	0.544229147887378	2-azacyclooctanone	CJYXCQLOZNIMFP-UHFFFAOYSA-N
520	2423123.51905	0.773434168316816	0.889742150768702	2.01364005864035	1,1,1,2,2,3,3,4,4-nonafluorononane	GYDMBTYTWYNRGO-UHFFFAOYSA-N
610.089425574	3027245.19938	1.74151266979584	0.571481941239882	0.715625422154983	2-heptanol	CETWDUZRCINIHU-UHFFFAOYSA-N
680	2651503.97742	1.3546423078808	0.999861106717997	0.852808858978335	1,1-bis(2-chloroethoxy)ethane	KHNOWHUSVXGGLG-UHFFFAOYSA-N
754	4660438.47967	0.45974997477555	0.882410144723713	1.9952647859421	1,4-benzodiazine	XSCHRSMBECNVNS-UHFFFAOYSA-N
759	3394252.85409	0.698887099213779	0.891078920511756	1.99844953296057	dimethyl 1,4-benzenedicarboxylate	WOZVHXUHUFLZGK-UHFFFAOYSA-N
765.7	1415414.84328	0.364373305074839	0.816965533583529	3.17836244564135	1-chlorohexadecane	CLWAXFZCVYJLLM-UHFFFAOYSA-N
709	1276325.43403	0.246247446275461	0.804644186303643	3.47735101571419	1,10-dichlorodecane	RBBNTRDPSVZESY-UHFFFAOYSA-N
634	4735629.21003	0.429997520610447	0.829350677551534	1.42666887159988	1,2-dibromoethane	PAAZPARNPHGIKF-UHFFFAOYSA-N
649	2936107.65162	1.25479955419963	0.999787680849168	0.72218017716025	2-ethyl-2-hexen-1-al	PYLMCYQHBRSDND-SOFGYWHQSA-N
661	1966690.4788	0.384579409088132	0.810741300511158	2.78178128907571	bis(1-methylethyl) butanedioate	YPLYFEUBZLLLIY-UHFFFAOYSA-N
644	3160025.14425	0.259426557415051	0.839512139206411	2.72212619842445	2,4,6-trimethylpyridine	BWZVCCNYKMEVEX-UHFFFAOYSA-N
662	3293648.91412	0.317708804296429	0.829923857416234	2.90477175951513	dimethyl 1,4-butanedioate	MUXOBHXGJLMRAB-UHFFFAOYSA-N
530.930097	3535183.5634	1.40818495038525	0.960483344738773	0.596976886781052	pentafluorobenzene	WACNXHCZHTVBJM-UHFFFAOYSA-N
504.548514286	3123559.84462	0.876553820744607	0.857495906512246	0.79395695651541	3-methylpentane	PFEOZHBOMNWTJB-UHFFFAOYSA-N
696	2801022.35907	0	0.214858177682592	0.742618323770708	heptyl methanoate	XEAMDSXSXYAICO-UHFFFAOYSA-N
540	2219915.14337	0.800369667155804	0.89158583847408	1.99276054910457	1,1,1,2,2,3,3,4,4-nonafluorodecane	YGGBKWYCPRYWRI-UHFFFAOYSA-N
693	2113637.56906	0.917080868870055	0.928246981486656	1.59838069335231	4,5,9-undecatrien-2-one, 6,10-dimethyl-	KLTSFSBBACTSHL-UHFFFAOYSA-N
815	2710271.35973	2.28631581970039	0.999967917821252	0.432124165904219	dibenzylamine	BWLUMTFWVZZZND-UHFFFAOYSA-N
638	4085839.98576	0.785452983491099	0.884042423990096	2.0799935941031	2-(2-chloroethoxy)ethanol	LECMBPWEOVZHKN-UHFFFAOYSA-N
703	3077908.97787	1.00070391443935	0.89051788267014	1.00116976683844	1-amino-2,4-dimethylbenzene	CZZZABOKJQXEBO-UHFFFAOYSA-N
777	1069787.1336	1.29643396547246	0.952521033962418	1.32130638580242	decyl decanoate	XAKXZZPEUKNHMA-UHFFFAOYSA-N
580	3096485.14603	0.531726638462999	0.880045716329201	2.12522190257362	N,N,N',N'-tetramethyl-1,3-propanediamine	DMQSHEKGGUOYJS-UHFFFAOYSA-N
679	3773009.96418	1.85552940804336	0.0015803428306107	0.701813510460153	(dichloromethyl)benzene	CAHQGWAXKLQREW-UHFFFAOYSA-N
870.479377541	2646256.48781	2.17148018200386	0.99837966353655	0.41523330650309	9-ethylcarbazole	PLAZXGNBGZYJSA-UHFFFAOYSA-N
712.1654	1800112.25191	0.707038323189953	0.797778374088682	1.69679081806953	methyl dodecanoate	UQDUPQYQJKYHQI-UHFFFAOYSA-N
777	923230.812759	1.44085243619239	0.976767571227905	1.13220951475373	octadecyl ethanoate	OIZXRZCQJDXPFO-UHFFFAOYSA-N
605	3736839.0917	0.640155765424514	0.915954563083604	1.74126997070406	1-butanamine, N-(2-methylpropyl)-	CCRUHKGZAQXBKC-UHFFFAOYSA-N
728	22036739.9842	0.409297949761106	0.885244077112543	2.06460976519701	hydrogen peroxide	MHAJPDPJQMAIIY-UHFFFAOYSA-N
730	1338842.63119	0.476114844132444	0.791184319111906	2.48676474313484	methyl tetradecanoate	ZAZKJZBWRNNLDS-UHFFFAOYSA-N
770	3178514.25945	0.671696618991685	0.922933167790018	1.67624047916892	1,2,3,5-tetrachloro-4-ethylbenzene	XSPWAZBXVGCKOK-UHFFFAOYSA-N
633.75762	3298843.05541	0.391224490910522	0.839418372365433	2.03355201226613	hexanenitrile	AILKHAQXUAOOFU-UHFFFAOYSA-N
610	3055829.27482	1.71358159642805	0.500381924776668	0.725025436028138	2,4-dimethyl-1-pentanol	OVOVDHYEOQJKMD-UHFFFAOYSA-N
722.86209	3870571.98285	0.908030034176647	0.980466888379314	1.10695134108279	2,3-dimethylphenol	QWBBPBRQALCEIZ-UHFFFAOYSA-N
881	4091571.92672	0.800153776823577	0.887619716357624	2.03777142558748	3-nitrobenzamide	KWAYEPXDGHYGRW-UHFFFAOYSA-N
631.513038462	3999967.00205	0.698248905406928	0.880902984774187	1.58865457977178	dimethyl ethanedioate	LOMVENUNSWAXEN-UHFFFAOYSA-N
730	2992839.98084	1.58664865902998	0.998806470933265	0.640865032213512	2-methyl-5-(1-methylethyl)phenol	RECUKUPTGUEGMW-UHFFFAOYSA-N
677	3191338.93895	2.16144126543504	0.599403631190869	0.453018591924404	1-methyl-4-(1-methylethylidene)cyclohexene	MOYAFQVGZZPNRA-UHFFFAOYSA-N
419.29	3994116.46605	1.00135809495857	0.9996754173391	0.644755466380924	1-butene	VXNZUUAINFGPBY-UHFFFAOYSA-N
710	2975616.5077	0.333553794509674	0.746764535057206	2.02574907420364	2-(1-methylpropyl)phenol	NGFPWHGISWUQOI-UHFFFAOYSA-N
912.975212754	2750344.84569	1.09086972110639	0.975415995170908	1.12105072375246	p-terphenyl	XJKSTNDFUHDPQJ-UHFFFAOYSA-N
369.900723099	4255458.05979	0.813733572256653	0.929511021596615	0.683735841338464	propane	ATUOYWHBWRKTHZ-UHFFFAOYSA-N
588	4202741.58003	0.575512658287473	0.923646839197052	1.66968749804447	2-methyl-3-butenenitrile	WBAXCOMEMKANRN-UHFFFAOYSA-N
803	851083.327344	0.866552381257532	0.860940950712323	2.38285380901284	3-ethyltetracosane	HCYGJXYCUXDCHD-UHFFFAOYSA-N
692.475944072	1547463.86798	0.531099820777858	0.796152811925907	2.04824926468233	tetradecane	BGHCVCJVXZWKCC-UHFFFAOYSA-N
664.8	1764103.75557	0.614895938275649	0.85329254872069	2.49719868607186	decyl acetate	NUPSHWCALHZGOV-UHFFFAOYSA-N
299.003592152	4818764.0234	0.367081219125725	0.840473652322685	1.58670700641524	trifluoromethane	XPDWGBQVDMORPB-UHFFFAOYSA-N
595	3492880.66959	0.664129856428115	0.899139981736445	1.91020447417479	hexyl methanoate	OUGPMNMLWKSBRI-UHFFFAOYSA-N
677	5028581.37212	0.40825347366897	0.863029347654309	2.35272065615157	benzylamine	WGQKYBSKWIADBV-UHFFFAOYSA-N
732	1546031.34848	0.553427101250053	0.829121414081253	2.92026004016275	(9E,11E)-tetradeca-9,11-dienyl acetate	RFEQLTBBKNKGGJ-YTXTXJHMSA-N
670	5035396.25281	0.471651732474474	0.86193390003447	2.36822398565252	1,5-pentanedial	SXRSQZLOMIGNAQ-UHFFFAOYSA-N
828	3267482.44979	1.76563097940962	0.976779538286303	0.632327277817453	pentachlorophenol	IZUPBVBPLAPZRR-UHFFFAOYSA-N
887	3818706.64964	0.979428050277451	0.84878381696823	2.56856983917832	cis-1,2,3,5-trans-4,6-cyclohexanehexol	CDAISMWEOUEBRE-GPIVLXJGSA-N
757	2356868.77412	0.979296363537158	0.472789293863257	0.7812115949511	N-methyl-2,3-dimethyl-3-phenyl-2-butanamine	NRGLCEUBQOEDBK-UHFFFAOYSA-N
491.044769231	8793509.23057	0	0.342325437007278	1.37059177775931	sulfur trioxide	AKEJUJNQAAGONA-UHFFFAOYSA-N
569.8254	3190294.18973	0.424931836339093	0.81460293200615	1.72078456445895	chloropentafluorobenzene	KGCDGLXSBHJAHZ-UHFFFAOYSA-N
671.8	2233370.60934	1.62204249077433	0.966627809736175	0.64256137489801	2-decanone	ZAJNGDIORYACQU-UHFFFAOYSA-N
607.481735849	2568891.90077	0.210992020558653	0.824435042068871	3.01573924950891	dibutylamine	JQVDAXLFBXTEQA-UHFFFAOYSA-N
618	2190371.43919	0.221664953334786	0.794483685422146	3.76641198463696	2,6-dimethyl-7-octen-2-ol	XSNQECSCDATQEL-UHFFFAOYSA-N
844	5089654.46675	0.541606449879588	0.923700179058063	1.66926757958946	biphenylene	IFVTZJHWGZSXFD-UHFFFAOYSA-N
772	2862731.10213	0.314931204100255	0.751405749539192	1.95968561023248	1-(1-methylethyl)naphthalene	PMPBFICDXLLSRM-UHFFFAOYSA-N
420	3221142.62754	0.36404009148431	0.840904016452828	1.70314988961244	phosgene	YGYAWVDWMABLBF-UHFFFAOYSA-N
736.484035	4988350.33338	0.684406603149457	0.854051106689863	2.48505431756238	diethanolamine	ZBCBWPMODOFKDW-UHFFFAOYSA-N
616	3671217.79488	1.44541946652791	0.998787503831009	0.707698723735167	3,5-dimethyl-3-hexanol	INMGJWCKWKKMPN-UHFFFAOYSA-N
676	2172456.93292	0.44318566366284	0.83896161439911	2.73574938913943	1-decanenitrile	HBZDPWBWBJMYRY-UHFFFAOYSA-N
641	4065596.206	1.27850733253897	0.941070280611797	0.54059688939299	chlorocyclohexane	UNFUYWDGSFDHCW-UHFFFAOYSA-N
498.76268	5511005.6503	1.29193564325978	0.999396058131804	0.462480589975243	ethanethiol	DNJIEGIFACGWOD-UHFFFAOYSA-N
789	4136210.87133	0.754650299601812	0.944055825487791	1.40496904248168	6-methylquinoline	LUYISICIYVKBTA-UHFFFAOYSA-N
658.5	2681326.23752	1.4454613150079	0.995093113615315	0.709200208522372	nonanal	GYHFUZHODSMOHU-UHFFFAOYSA-N
553	4082955.19167	0.76958608145431	0.829725255444866	0.84509309639261	3-methyl-2-thiabutane	ROSSIHMZZJOVOU-UHFFFAOYSA-N
727	3391862.91508	1.38495518793382	0.999514029796961	0.764241389261577	4-propylphenol	KLSLBUSXWBJMEC-UHFFFAOYSA-N
804	746220.809698	2.51255975755531	0.994840880121894	0.61999311487502	9-ethyl-9-heptyloctadecane	LRJHOBBNMAGOIG-UHFFFAOYSA-N
657	3119402.78958	0.380646834901019	0.833321718257783	2.1308013809449	heptanenitrile	SDAXRHHPNYTELL-UHFFFAOYSA-N
797	3559760.34155	1.12945229991277	0.999998529167569	0.96872349375795	pentachlorobenzene	CEOCDNVZRAIOQZ-UHFFFAOYSA-N
621	2947628.6554	0.503020009814263	0.644999946116058	1.3304988921826	2,5-dimethyl-3-hexanol	SNKTZHPOKPYBPT-UHFFFAOYSA-N
506.10588191	3974280.83306	2.08051585041575	0.999991332183654	0.561167630318667	2-methylpropan-2-ol	DKGAVHZHDRPRBM-UHFFFAOYSA-N
778.4	952700.971957	0.51634572687986	0.814175767013742	3.24281925163253	(Z)-tricos-9-ene	IGOWHGRNPLFNDJ-ZPHPHTNESA-N
684.84902	3985183.30314	0.493742658118318	0.830976358405162	1.41126538285215	indane	PQNFLJBBNBOBRQ-UHFFFAOYSA-N
690	3234839.16718	0.665101564386747	0.953481433169389	1.31208556011132	1,1'-bicyclopentyl	MAWOHFOSAIXURX-UHFFFAOYSA-N
682	3356472.74011	1.21466455300401	0.492371866327192	0.582413039572915	cyclononane	GPTJTTCOVDDHER-UHFFFAOYSA-N
778	2658523.03485	1.48734647776028	0.99952357851144	0.663125985735913	1,1-diphenylethene	ZMYIIHDQURVDRB-UHFFFAOYSA-N
628.408155	3068832.36113	2.65793832862187	0.84502940305619	0.438218567275659	3-octanol	NMRPBPVERJPACX-UHFFFAOYSA-N
666	3292897.71041	0.905161000991935	0.999842466184734	0.974822525094758	1,2-dichloro-4-(trifluoromethyl)benzene	XILPLWOGHPSJBK-UHFFFAOYSA-N
749	4260750.56229	0.874451843622399	0.807059638945992	0.930365737327271	2H-pyran-2-one, tetrahydro-6-methyl-	RZTOWFMDBDPERY-UHFFFAOYSA-N
549.5	3806016.29591	1.36973494580746	0.999954056639184	0.496180254213598	2-butanethiol	LOCHFZBWPCLPAN-UHFFFAOYSA-N
555.782192453	3678075.85397	0.350061250592561	0.858892156970521	2.41144876928913	dipropylamine	WEHWNAOGRSTTBQ-UHFFFAOYSA-N
974	2982075.07754	1.34256817559791	0.999992279541927	0.654391355304174	pyrene	BBEAQIROQSPTKN-UHFFFAOYSA-N
620.581818182	2658811.50755	0	0.137341595240661	1.01414932807936	ethyl .beta.-ethoxypropionate	BHXIWUJLHYHGSJ-UHFFFAOYSA-N
644	4069902.32445	0.147540159772498	0.840177691704825	2.71157933707028	cis-5-ethylidenebicyclo[2.2.1]hept-2-ene	OJOWICOBYCXEKR-WAPJZHGLSA-N
766	3069882.50746	1.06043581715208	0.999999636774691	0.92829201135424	1-ethylnaphthalene	ZMXIYERNXPIYFR-UHFFFAOYSA-N
481	3158535.00202	0.583232921325686	0.941483757773903	1.43171939339875	1,1-dichloro-2,2,3,3,3-pentafluoropropane	COAUHYBSXMIJDK-UHFFFAOYSA-N
711	2377354.06382	0.836712972472103	0.72464487859621	1.17781051236295	dimethyl 1,7-heptanedioate	SHWINQXIGSEZAP-UHFFFAOYSA-N
657	5833028.11428	0.464682248400938	0.790724189855508	1.33554041504646	1,1,2,2-tetrachloroethane	QPFMBZIOSGYJDE-UHFFFAOYSA-N
652	2121151.8585	0.607599622409601	0.828067650818175	1.90917112381646	octyl ethanoate	YLYBTZIQSIBWLI-UHFFFAOYSA-N
594.6	2949254.06623	0	0.158004676209652	0.95651277647831	2-methyl-4-hexanone	DXVYLFHTJZWTRF-UHFFFAOYSA-N
552	3401823.56199	1.39916169435013	0.999851849253555	0.49251657830422	1,cis-3-dimethylcyclopentane	XAZKFISIRYLAEE-KNVOCYPGSA-N
720.282917647	3518258.39681	0.994051517312079	0.876115574979758	0.800498698906606	1,2,3,4-tetrahydronaphthalene	CXWXQJXEFPUFDZ-UHFFFAOYSA-N
639	4801156.55692	1.35721412430572	0.999989228289818	0.513642066547963	cyclopentanethiol	WVDYBOADDMMFIY-UHFFFAOYSA-N
763	1880064.15657	1.53232965831265	0.680420889084165	0.986686271651597	tridecanoic acid	SZHOJFHSIKHZHA-UHFFFAOYSA-N
639.303796203	2954800.84866	1.4022465884118	0.998853355524114	0.696449485183195	octanal	NUJGJRNETVAIRJ-UHFFFAOYSA-N
688.2	1340603.7739	0.159899655015118	0.786337025841496	3.99885764914128	tetradecane, 2,4-dimethyl-	NWTLFDYNCLTSAR-UHFFFAOYSA-N
629.63054004	2753906.77323	2.3392033978128	0.999932649137941	0.477778652940574	2-octanol	SJWFXCIHNDVPSH-UHFFFAOYSA-N
609.4	4129248.97893	0.607996119740913	0.915053091497331	1.74981740064832	3-pentenenitrile	UVKXJAUUKPDDNW-UHFFFAOYSA-N
785	1502020.14968	0.716405892189827	0.680113977423891	1.89715503985343	hexadecanoic acid	IPCSVZSSVZVIGE-UHFFFAOYSA-N
593	3539603.87977	1.93720572803621	0.690298800871096	0.652706858874832	2-ethyl-1-butanol	TZYRSLHNPKPEFV-UHFFFAOYSA-N
740	1204795.90697	0.518763077326295	0.810506360487089	3.33097873771203	methyl (Z,Z,Z)-9,12,15-octadecatrienoate	DVWSXZIHSUZZKJ-YSTUJMKBSA-N
693.815896771	2031074.91012	0.541237271423267	0.799551329136083	2.54476494589907	glyceryl triethanoate	URAYPUMNDPQOKB-UHFFFAOYSA-N
648	3161899.09551	1.2384009372033	0.89939474699424	0.745358696560146	cyclohexyl ethanoate	YYLLIJHXUHJATK-UHFFFAOYSA-N
729	2686681.27038	0.344940200895558	0.72612147984249	1.97163416646406	2-methyl-4-tert-butylphenol	SNKLPZOJLXDZCW-UHFFFAOYSA-N
651	2574532.91578	1.40621986616222	0.999681679744938	0.830982171230125	diethyl 1,3-propanedioate	IYXGSMUGOJNHAZ-UHFFFAOYSA-N
504.318845247	5177910.33735	1.66105994540055	0.999416283772469	0.439193662240751	propanal	NBBJYMSMWIIQGU-UHFFFAOYSA-N
720	1776110.23239	1.42391397964262	0.941796815604672	0.823353272883821	7-thiatridecane	LHNRHYOMDUJLLM-UHFFFAOYSA-N
722	3729570.27477	0.476407362975379	0.825898399332539	1.56506751480855	nitrobenzene	LQNUZADURLCDLV-UHFFFAOYSA-N
670	1952566.83228	0.895244930690596	0.829033239359851	1.22684996322527	linalool acetate	UWKAYLJWKGQEPM-UHFFFAOYSA-N
530.56006	2891152.69005	1.36041387588795	0.999999667562618	0.630260014883515	dipropyl ether	POLCUAVZOMRGSN-UHFFFAOYSA-N
546.9	2942407.44761	0.472544796864922	0.922593640145452	1.67888455191579	2,3-dimethyl-2-pentene	WFHALSLYRWWUGH-UHFFFAOYSA-N
584	3104686.0348	0.0315277178767274	0.78958572996513	3.91651239904781	2,2-dimethyl-3-pentanol	HMSVXZJWPVIVIV-UHFFFAOYSA-N
784	3678357.95547	2.0635657753737	0.972361872860775	0.741229798759701	1,4-benzenedicarboxylic acid, monomethyl ester	REIDAMBAPLIATC-UHFFFAOYSA-N
745	3787748.97747	1.22764583009748	0.998937563610442	0.650457034128219	1,2,3-trichlorobenzene	RELMFMZEBKVZJC-UHFFFAOYSA-N
651	4482679.28393	2.55553029041175	0.999743475116452	0.325930869593854	1,4-butanediamine	KIDHWZJUCRJVML-UHFFFAOYSA-N
662	2857963.3036	1.34407814716832	0.973064020365261	0.745537366814021	cyclohexyl propanoate	MAMMVUWCKMOLSG-UHFFFAOYSA-N
829	1044886.00366	0.85381018620118	0.868880562370014	2.27200742379852	7-hexadecylbicyclo[4.3.0]nonane	XYDNFNUIQWCNEV-UHFFFAOYSA-N
640	5454597.02528	1.26071462256602	0.999861003628799	0.834132518779225	dimethylfurazan	JKJSZGJVBAWEFB-UHFFFAOYSA-N
559.461	3530430.79041	0.0813461879915211	0.788889589895401	3.91443634117513	2-methyl-2-pentanol	WFRBDWRZVBPBDO-UHFFFAOYSA-N
526	2873873.6352	0.783702026072718	0.986392125912308	1.07164257685156	N,N,N',N'-tetramethylmethanediamine	VGIVLIHKENZQHQ-UHFFFAOYSA-N
611.426824	1975961.47337	0	0.145055144514839	0.923526878707861	3-methylbutyl propanoate	XAOGXQMKWQFZEM-UHFFFAOYSA-N
32.976	1292618.87282	0.142926703265826	0.894658845611433	0.000000122782787048692	para-hydrogen	UFHFLCQGNIYNRP-UHFFFAOYSA-N
814	2558204.99763	0.295163811387964	0.82226617349084	3.06132004793507	benzyl benzoate	SESFRYSPDFLNCH-UHFFFAOYSA-N
739	1218791.67594	0.614643064358695	0.822756589340031	3.05110117693946	methyl cis-9-octadecenoate	QYDYPVFESGNLHU-KHPPLWFESA-N
605.96	4000242.82669	0.422956426940607	0.719704447330832	1.56865714121885	ethanoic anhydride	WFDIJRYMOXRFFG-UHFFFAOYSA-N
612	4778212.83862	1.42752918243631	0.999916383317671	0.470478042213407	1,3,5-cycloheptatriene	CHVJITGCYZJHLR-UHFFFAOYSA-N
735.70885377	1320624.96752	0.621973511907285	0.784768875473579	1.98550675155449	heptadecane	NDJKXXJCMXVBJW-UHFFFAOYSA-N
724	2839733.99863	0.994060110980601	0.999824166629379	1.00026701145109	1,2-dibromoheptane	CKVJSNYSBIZAAE-UHFFFAOYSA-N
732	1621520.14845	0.544512118580149	0.836511130384857	2.09756802834606	decylcyclopentane	WOUVLFFZQCUYOL-UHFFFAOYSA-N
616	2156739.58424	0.897432210075395	0.8278685508902	1.0722904739591	1-decene	AFFLGGQVNFXPEV-UHFFFAOYSA-N
576	3634113.72478	0.142683073389307	0.846558434164569	2.60518493092412	4-methylcyclohexene	FSWCCQWDVGZMRD-UHFFFAOYSA-N
637.304588	3126912.76079	0.652221415578338	0.840097310753874	1.27399257718281	1,3,5-trimethylbenzene	AUHZEENZYGFFBQ-UHFFFAOYSA-N
660	2934498.89512	1.23465185120198	0.999820107654967	0.631758048374657	bicyclo[4.1.0]hept-3-ene, 3,7,7-trimethyl-	BQOFWKZOCNGFEC-UHFFFAOYSA-N
828	3009282.42605	0.648817545484029	0.923577922409035	1.67038736294286	2-bromo-4-phenylphenol	DZGMMVYPLBTLRQ-UHFFFAOYSA-N
812	2183452.85055	0.618749624574357	0.857390851996038	2.43433634240021	2,4,6-trinitrotoluene	SPSSULHKWOKEEL-UHFFFAOYSA-N
775	2787744.305	1.09152416490415	0.999553258786709	0.897562695154741	2-(1-methylethyl)naphthalene	TVYVQNHYIHAJTD-UHFFFAOYSA-N
651	3140765.32039	0	0.256188531437878	0.707898881260676	2-butanone, 3-hydroxy-3-methyl-	BNDRWEVUODOUDW-UHFFFAOYSA-N
616	5531434.67542	0.689764175670601	0.923689940444111	1.66917497736353	acetol	XLSMFKSTNGKWQX-UHFFFAOYSA-N
477.574551811	1621758.79468	1.93543894073529	0.99995492513462	0.545924732050806	hexadecafluoroheptane	LGUZHRODIJCVOC-UHFFFAOYSA-N
540	4661079.24041	0.470253528081922	0.85485907886226	1.46278314400746	acrylonitrile	NLHHRLWOUZZQLW-UHFFFAOYSA-N
672	4450926.19926	0.614325393565072	0.858447460215865	1.3932694084591	N,N-diethylformamide	SUAKHGWARZSWIH-UHFFFAOYSA-N