Tc	Pc	c0	c1	c2	name	inchikey
500	5062288.09103	1.15714190930308	0.999997680865553	0.564754511410473	spiro[2.2]pentane	OGNAOIGAPPSUMG-UHFFFAOYSA-N
840	4112827.44039	1.95777149970157	0.999779869716026	0.358909706119817	6-bromo-2,4-dichlorophenol	FRPHJINKMDMSPH-UHFFFAOYSA-N
725	1978477.73064	1.33274907606155	0.999868110974107	0.867031042564044	octylbenzene	CDKDZKXSXLNROY-UHFFFAOYSA-N
827.885013772	4575924.66354	1.39947367072931	0.999929404776604	0.924540138557008	1,1'-biphenyl-4-ol	YXVFYQXJAXKLAK-UHFFFAOYSA-N
678	1604219.96425	0.752219995987574	0.902835535034977	1.8709850722958	7-methyltridecane	BHDKLTKHPZWYCV-UHFFFAOYSA-N
581	3570871.39741	0.47797373210913	0.864462111413217	2.19432622250351	N,N-dimethyl-1,3-propanediamine	IUNMPGNGSSIWFP-UHFFFAOYSA-N
559.626713111	2501949.32633	0.707959127149503	0.813857022147843	1.13276116425466	2-methylheptane	JVSWJIKNEAIKJW-UHFFFAOYSA-N
638	3890464.58186	1.106816243397	0.999913383867939	0.810539370663437	1,4-dichlorobutane	KJDRSWPQXHESDQ-UHFFFAOYSA-N
675	2576469.14484	1.34615293768666	0.999744893248214	0.712502767264315	pentylbenzene	PWATWSYOIIXYMA-UHFFFAOYSA-N
772	3570290.7941	0.42055387047064	0.819683895437429	1.90791948756673	2-methylbiphenyl	ALLIZEAXNXSFGD-UHFFFAOYSA-N
894	3634682.26725	0.000370267285646011	0.0528780200639634	0.634819258028221	1,3-diethylbarbituric acid	XUCMDLYIYOXEBF-UHFFFAOYSA-N
766	4992958.03886	0.963871676713933	0.997349968512689	1.01331332707715	4-chlorobenzenamine	QSNSCYSYFYORTR-UHFFFAOYSA-N
614.2	2994171.91442	1.4848330233938	0.999965394312357	0.590847252100526	1-nonyne	OSSQSXOTMIGBCF-UHFFFAOYSA-N
755	2070140.60095	0.246353008679621	0.805858766593459	3.44833880516615	heptyl benzoate	UMFTYCUYCNMERS-UHFFFAOYSA-N
710.8	1759085.13753	0.550133415553923	0.83532616816539	2.4186139030659	1-aminotridecane	ABVVEAHYODGCLZ-UHFFFAOYSA-N
685	3678371.55571	1.74688197265038	0.999973455871563	0.5698392435106	1,6-hexanediamine	NAQMVNRVTILPCV-UHFFFAOYSA-N
647	6405262.09809	1.05283452776935	0.999997050057587	0.944044357799985	2,3-butanolone	ROWKJAVDOGWPAT-UHFFFAOYSA-N
558	4065539.51906	0.226760280168078	0.848905098657745	2.56653418630194	1-propanamine, N-(1-methylethyl)-	VLSTXUUYLIALPB-UHFFFAOYSA-N
562	3590109.72146	0.616546104582202	0.817580419510116	1.16507672630388	(trifluoromethyl)benzene	GETTZEONDQJALK-UHFFFAOYSA-N
836	6156417.28698	2.12177208273785	0.799285362134603	0.484777421413171	1,3-benzenediol	GHMLBKRAJCXXBS-UHFFFAOYSA-N
672	2805864.45494	1.1829101806227	0.998571173864224	0.79261582346654	3-methyl-2-phenyl-1-butene	POZGETMIPGBFGQ-UHFFFAOYSA-N
477.3	4201162.19736	0.617816632467824	0.969081594480453	1.18591015140406	1,1-dichloro-1-fluoroethane	FRCHKSNAZZFGCA-UHFFFAOYSA-N
716.5	4490851.26785	0.924833410680239	0.78220872723449	0.879483675459276	2-methylaniline	RNVCVTLRINQCPJ-UHFFFAOYSA-N
486.98	2900522.62428	2.55954032911744	0.748721813586743	0.413991381624806	1,1,2,2,3,3-hexafluoro-1-methoxypropane	CMRJNALMNDBXQC-UHFFFAOYSA-N
647	2822621.63848	0.695257765830506	0.881186964771413	2.11441284412012	(diethoxymethyl)benzene	MAQMEXSLUSZDQM-UHFFFAOYSA-N
595.710425	3060017.79151	1.60847500177723	0.928567068196652	0.502501661731855	dichlorodiethylsilane	BYLOHCRAPOSXLY-UHFFFAOYSA-N
473.8	3590614.69778	0.796288068273303	0.99996037688922	0.958194221602982	2-pentene	QMMOXUPEWRXHJS-UHFFFAOYSA-N
497.866151594	3032358.59593	1.10161618681448	0.914560788501123	0.660059277193773	2-methylpentane	AFABGHUZZDYHJO-UHFFFAOYSA-N
608.6	2667582.2935	1.36554308588593	0.999984441887311	0.596626398398545	3,3-diethylpentane	BGXXXYLRPIRDHJ-UHFFFAOYSA-N
786	3266238.19407	0.731027168311583	0.823335360204946	1.20159940335975	2,6-dimethylquinoline	JJPSZKIOGBRMHK-UHFFFAOYSA-N
630.570809861	3752110.61238	0.635128184661418	0.838587157768029	1.13868773017798	1,2-dimethylbenzene	CTQNGGLPUBDAKN-UHFFFAOYSA-N
640	3344273.02376	1.16097166034988	0.999979344851078	0.903997651071142	5-heptene-2-one, 6-methyl-	UHEPJGULSIKKTP-UHFFFAOYSA-N
616	3314233.40774	0.46402272886024	0.922833881479912	1.67404153366538	1,2-dimethylcyclohexene	TXNWMICHNKMOBR-UHFFFAOYSA-N
686	2436567.27806	1.43438009271662	0.999591890728722	0.657180815345116	1-ethyl-2,4,5-trimethylbenzene	IYFUQKGDILUVJG-UHFFFAOYSA-N
227.53539	3734291.13796	0.588912503850331	0.856041359247816	0.939772469504313	tetrafluoromethane	TXEYQDLBPFQVAA-UHFFFAOYSA-N
881	3922399.25777	0.993969394029227	0.778054230248802	1.13189946751787	N-(4-bromophenyl)acetamide	MSLICLMCQYQNPK-UHFFFAOYSA-N
563.6821	2542609.52046	0.745801280655303	0.816657481675157	1.06841717008597	3-methylheptane	LAIUFBWHERIJIH-UHFFFAOYSA-N
672	3806811.29989	0.99179100583529	0.967528248494336	0.969644690734385	1,5-dichloropentane	LBKDGROORAKTLC-UHFFFAOYSA-N
751	5950503.18675	0.567254315100416	0.883672333679109	1.39902550832192	3-chlorophenyl isocyanate	HHIRBXHEYVDUAM-UHFFFAOYSA-N
837	4165526.02894	1.45701581516787	0.341201559217834	0.488875880078218	2,4,5-trichlorophenol	LHJGJYXLEPZJPM-UHFFFAOYSA-N
795	1959130.91136	0.843204741050084	0.882086157010849	2.10347532893104	5,8-dimethyl-1-octyl-1,2,3,4-tetrahydronaphthalene	YGXXXFDZLBVJPP-UHFFFAOYSA-N
743	4759448.15517	0.620417306528725	0.838366931097237	1.24111192264678	1,3-dibromobenzene	JSRLURSZEMLAFO-UHFFFAOYSA-N
655	6079219.21915	1.88660668228327	0.996649269022289	0.512263155134032	2-(methylamino)ethanol	OPKOKAMJFNKNAS-UHFFFAOYSA-N
585.988150506	3310000	2.18066072651568	0.763968592006943	0.549386032458468	2-hexanol	QNVRIHYSUZMSGM-UHFFFAOYSA-N
797	4446166.02094	1.04217214764603	0.999938662502398	0.975372176556927	1,2,3,4-tetrahydro-1-naphthone	XHLHPRDBBAGVEG-UHFFFAOYSA-N
460	5448482.78851	0.647290446814599	0.947997055076475	0.997470885756721	1,3-butadiyne	LLCSWKVOHICRDD-UHFFFAOYSA-N
582.4367259	3307550.72393	2.65340160174672	0.510565806147955	0.528801941902655	3-hexanol	ZOCHHNOQQHDWHG-UHFFFAOYSA-N
591.702439024	3528346.0058	0.478063752044068	0.836859937581855	1.69408549616138	hexanal	JARKCYVAAOWBJS-UHFFFAOYSA-N
700.44208641	4004319.96378	0.492950620731671	0.79112610446349	1.91863795044111	1,7-diaminoheptane	PWSKHLMYTZNYKO-UHFFFAOYSA-N
720	1671597.93402	0.48456490746656	0.830364754223199	2.89631848015447	(Z)-tridec-4-enyl acetate	DUCVQKMNGSZPAV-KHPPLWFESA-N
600	4339174.48791	0.54957872061895	0.753046160603714	1.66639933351669	3-methyl-3-hexanol	KYWJZCSJMOILIZ-UHFFFAOYSA-N
754	4055787.79125	0.425712327867452	0.860932585912018	2.3823556880726	4-methoxybenzaldehyde	ZRSNZINYAWTAHE-UHFFFAOYSA-N
736	2075560.69154	0.753020684011902	0.883593731664259	2.08538351891049	n-octyl levulinate	NYHJFEFGDGGWSE-UHFFFAOYSA-N
711	1950954.56305	1.49312086205719	0.999912675812094	0.986393447866429	dimethyl nonanedioate	DRUKNYVQGHETPO-UHFFFAOYSA-N
569	2768267.03795	1.19825423839031	0.994289760974576	0.743246283100108	N,N,N',N'-tetramethyl-1,2-diaminoethane	KWYHDKDOAIKMQN-UHFFFAOYSA-N
563	2908160.37453	0.315605399459466	0.847710984724633	2.58628694295489	1-butanamine, N-(1-methylethyl)-	OKRJGUKZYSEUOY-UHFFFAOYSA-N
783	3087177.77118	1.35947984053586	0.999996067431761	0.717689625937574	3-methylbiphenyl	NPDIDUXTRAITDE-UHFFFAOYSA-N
628	2909115.87612	1.59921104544903	0.999990750197711	0.465252038573414	2,2,4,4-tetramethyl-3-thiapentane	LNMBCRKRCIMQLW-UHFFFAOYSA-N
742	2592271.32609	1.28508950531826	0.999415262854282	0.781860728435699	N-cyclohexylcyclohexanamine	XBPCUCUWBYBCDP-UHFFFAOYSA-N
604.9	2095832.47312	0.481383084181135	0.806883988835277	1.69493138087598	2,7-dimethyloctane	KEVMYFLMMDUPJE-UHFFFAOYSA-N
692	2527376.07296	1.61989772092621	0.999295786427449	0.713793015935316	dimethyl 1,6-hexanedioate	UDSFAEKRVUSQDD-UHFFFAOYSA-N
543.891446271	4441757.23441	0.761616964596526	0.839808699259196	1.11613762452599	2,3-butanedione	QSJXEFYPDANLFS-UHFFFAOYSA-N
836	3246621.467	1.27003131644594	0.999136885979467	0.706861900782935	fluorene	NIHNNTQXNPWCJQ-UHFFFAOYSA-N
694	3777239.5412	1.28909197319603	0.999940212090601	0.612489166132802	4-bromotoluene	ZBTMRBYMKUEVEU-UHFFFAOYSA-N
777	1570197.74977	1.73485669975798	0.745894580388329	0.936471900662174	pentadecanoic acid	WQEPLUUGTLDZJY-UHFFFAOYSA-N
704	4136037.78008	0.275805987018849	0.852163368588171	2.51492469900658	1,4-dibromobutane	ULTHEAFYOOPTTB-UHFFFAOYSA-N
600	3802637.93671	1.63104887795104	0.99505290226528	0.417804877665734	2,3-dichlorobutane	RMISVOPUIFJTEO-UHFFFAOYSA-N
712	2852695.79461	0.388831085296588	0.84361714595633	2.65455040281381	2-methylpropyl benzoate	KYZHGEFMXZOSJN-UHFFFAOYSA-N
611	5885935.58754	0.811403722995591	0.82668099933496	0.858703735156503	N-methylpyrrole	OXHNLMTVIGZXSG-UHFFFAOYSA-N
675	5724575.10941	0.462366396411455	0.865980644648711	2.3101846223276	5-methylfurfural	OUDFNZMQXZILJD-UHFFFAOYSA-N
624	3707315.11759	2.04111319600405	0.994047887299187	0.359071720383816	1,3-dichloro-2-methylpropane	VENSUTAUIFXSRD-UHFFFAOYSA-N
652	2975315.06372	1.13581042307036	0.795835818983972	0.780446105405213	7,7-dimethoxybicyclo[2.2.1]heptane	LVXSGHXAFITEIZ-UHFFFAOYSA-N
755	4645792.37479	1.37202752376508	0.999909420977996	0.88389199293132	benzoic acid	WPYMKLBDIGXBTP-UHFFFAOYSA-N
728	1818212.37082	0.723199465544422	0.906294768620603	1.83592626359702	pentaethylbenzene	JREJWHNDQOGSQT-UHFFFAOYSA-N
795	4499596.20459	0.756903185673901	0.852585152231624	1.62566525531839	4-methyl-1,3-benzendiamine	VOZKAJLKRJDJLL-UHFFFAOYSA-N
710	1556580.53733	1.26457127990482	0.962800795516812	1.2296994059731	dodecanecarbonitrile	WKJHMKQSIBMURP-UHFFFAOYSA-N
593.3	3017179.33034	1.34713554352342	0.809780395953718	0.657207718502588	2-methyl-3-hexanone	HIGGFWFRAWSMBR-UHFFFAOYSA-N
698.57038	3767782.37908	0.231726387695692	0.831562616820588	2.87294637911776	N-ethylaminobenzene	OJGMBLNIHDZDGS-UHFFFAOYSA-N
701.76942	4219084.493	1.06327297232452	0.874428776694871	0.836645384353203	N-methylaniline	AFBPFSWMIHJQDM-UHFFFAOYSA-N
715	4306386.45135	2.54369047389749	0.990636366704721	0.343107238153373	benzenemethanol	WVDDGKGOMKODPV-UHFFFAOYSA-N
709	3188064.41533	0.60064937000335	0.923699021744137	1.66927111739438	2,5-dichloroethylbenzene	PZPSDDYNMXBZOA-UHFFFAOYSA-N
687	2339173.66968	2.22599117578978	0.961732172534618	0.369732567410198	1,2-diisopropylbenzene	OKIRBHVFJGXOIS-UHFFFAOYSA-N
760	1888831.53688	1.24014590546124	0.978837726682127	1.11870489785737	bis(1-methylethyl) 1,2-benzenedicarboxylate	QWDBCIAVABMJPP-UHFFFAOYSA-N
636	2588327.25562	1.08908751504939	0.999915615391345	0.902699990018779	1-butylpiperidine	AXWLKJWVMMAXBD-UHFFFAOYSA-N
464.440552	3761994.11967	1.02292973718785	0.914385184072304	0.696663014683274	isopropyl methyl ether	RMGHERXMTMUMMV-UHFFFAOYSA-N
657.6	1930565.68716	0.702230602167771	0.79725271862515	1.46492398260266	1-dodecene	CRSBERNSMYQZNG-UHFFFAOYSA-N
626	2954385.47426	0.971201506848152	0.859499220464819	1.3742797264644	3,3-dimethylbutanoic acid	MLMQPDHYNJCQAO-UHFFFAOYSA-N
803	2961986.88355	0	0.696761486404208	1.40857239329001	fluorodinitrophenylmethane	NPRRCIKUIFRPTB-UHFFFAOYSA-N
537.296337931	2891680.59442	0.5525082994895	0.7882835271117	1.14747738362229	2,3-dimethylpentane	WGECXQBGLLYSFP-UHFFFAOYSA-N
564.2	3989225.52435	1.34358961462056	0.999998566556895	0.535635114263251	2-thiapentane	ZOASGOXWEHUTKZ-UHFFFAOYSA-N
628	2591507.93949	1.41912382732604	0.999956652484282	0.704598842808789	methyl heptanoate	XNCNNDVCAUWAIT-UHFFFAOYSA-N
879	2987719.85204	1.71835325763839	0.982463227942969	0.823186182153416	4,4'-methylenebisbenzenamine	YBRVSVVVWCFQMG-UHFFFAOYSA-N
784	2470557.0949	1.56136723580804	0.999172373907465	0.585537172036786	2-(1,1-dimethylethyl)naphthalene	MCEORGGPAKTORV-UHFFFAOYSA-N
463.89	2712556.34702	1.54463630382901	0.309109950853552	0.79034153906765	2,2,2-trifluoroethyl 1,1,2,2-tetrafluoroethyl ether	CWIFAKBLLXGZIC-UHFFFAOYSA-N
687	4503799.06065	1.80295304600331	0.999974064038146	0.661020072232846	cyclohexanone oxime	VEZUQRBDRNJBJY-UHFFFAOYSA-N
598	1820183.69294	0.688469703640845	0.85121355377274	2.52994320706008	1H,1H,9H-hexadecafluoro-1-nonanol	MSXVQELLSMPBFD-UHFFFAOYSA-N
509.8	3000594.14138	0.196202574024365	0.830004938119055	2.89696763363286	3,3-dimethyl-2,4-dioxapentane	HEWZVZIVELJPQZ-UHFFFAOYSA-N
549	4693824.80445	0.438705682899982	0.923567391967733	1.67013448262019	acetyl bromide	FXXACINHVKSMDR-UHFFFAOYSA-N
672	4251671.1387	0.690681574037204	0.800484577782681	0.889474201916795	cyclohexanethiol	CMKBCTPCXZNQKX-UHFFFAOYSA-N
632.7	2780750.30574	0.533055454255565	0.800553766612037	1.61498838192515	2-octanone	ZPVFWPFBNIEHGJ-UHFFFAOYSA-N
764	4582224.42528	0.186966219803413	0.847673200261825	2.58648419366283	benzo[b]thiophene	FCEHBMOGCRZNNI-UHFFFAOYSA-N
624.45855	4566134.63176	1.15784724476885	0.912226732319228	0.631803482179165	cyclopentanone	BGTOWKSIORTVQH-UHFFFAOYSA-N
542	4152940.53545	0.519900256051638	0.941550111854104	1.43265058607302	methylenecyclopentane	NFJPEKRRHIYYES-UHFFFAOYSA-N
684	3583895.30837	1.06529990431343	0.999934077204735	0.832882571821031	tricyclo[5.2.1.0(2,6)]decane	LPSXSORODABQKT-UHFFFAOYSA-N
928	3895403.62942	0.414779827678338	0.87503215730368	2.19117563038201	benzo[def]fluorene	RKZDZWJDQTZDLD-UHFFFAOYSA-N
775.827294118	3032215.66501	0.628483511793039	0.796692788311918	1.3259208998316	diphenylmethane	CZZYITDELCSZES-UHFFFAOYSA-N
866	3132817.57185	0.460534207490527	0.865154261634683	2.32308415378137	2-phenyl-1H-indene	BSBXLZYWGGAVHD-UHFFFAOYSA-N
674.162548765	2601058.33741	1.36090857417083	0.999770718316244	0.821372746380074	decanal	KSMVZQYAVGTKIV-UHFFFAOYSA-N
837	3014550.53033	0.723187961786121	0.901068169095702	1.88987542168272	3-(o-biphenylyloxy)-1,2-epoxypropane	DNVXWIINBUTFEP-UHFFFAOYSA-N
864	6501741.47287	1.11740664058932	0.984472858336976	0.68497459664776	imidazo[1,2-a]pyridine	UTCSSFWDNNEEBH-UHFFFAOYSA-N
704	3463493.2303	1.05663037266455	0.824171136007733	0.955797623012217	2-(1-methylethyl)phenol	CRBJBYGJVIBWIY-UHFFFAOYSA-N
751.226169703	4768345.1581	1.83150211983188	0.802760591566376	0.6451632711063	diethylene glycol	MTHSVFCYNBDYFN-UHFFFAOYSA-N
668	5371364.87027	0.213674559009389	0.821426031706358	3.07914104869909	2-tetrahydrofurylmethanol	BSYVTEYKTMYBMK-UHFFFAOYSA-N
668	3889117.84839	0.460819907778856	0.856895037086102	2.44221777964131	glycidyl butyrate	YLNSNVGRSIOCEU-UHFFFAOYSA-N
846	2855349.8588	0.73727293912749	0.889167280855705	2.02014870773978	1-chloro-2,4,6-trinitrobenzene	HJRJRUMKQCMYDL-UHFFFAOYSA-N
615	3019405.70181	0.170763910512101	0.843010700939875	2.66491525998267	2,4-pentanedione	YRKCREAYFQTBPV-UHFFFAOYSA-N
779	1919224.01005	1.72893946862877	0.99984772801021	0.674243048194253	tetradecanenitrile	MLRCLPRHEOPXLL-UHFFFAOYSA-N
736	1361920.7162	0.412303959935904	0.815700768488959	3.18987982485333	methyl pentadecanoate	XIUXKAZJZFLLDQ-UHFFFAOYSA-N
716	3355917.47236	0.584423977544434	0.906887970386456	1.82957032022619	4-ethyl-2-methylphenol	QDQMEHXIUFCIGR-UHFFFAOYSA-N
897	2121519.18137	1.7154545088913	0.176318886349057	0.588866966238314	oxacycloheptadecan-2-one	LOKPJYNMYCVCRM-UHFFFAOYSA-N
571	3129228.00502	0	0.241058120924937	0.917357918915243	N,N,N'-trimethylethylenediamine	HVOYZOQVDYHUPF-UHFFFAOYSA-N
680	3529006.02557	0.568399404676226	0.923766563593414	1.66804541211833	cyanocyclohexane	VBWIZSYFQSOUFQ-UHFFFAOYSA-N
770	2821657.18643	1.47942118474558	0.99991429719574	0.860018345962321	ethyleneglycol bis(chloroethanoate)	HIIBHBNRMVLLKH-UHFFFAOYSA-N
554	5227714.83923	0.680815020121047	0.883139262388078	2.09082820419969	3-methoxy-1-propanol	JDFDHBSESGTDAL-UHFFFAOYSA-N
735	1356482.53634	0.80101074220476	0.880809621858064	2.11896847215449	1-methylethyl tetradecanoate	AXISYYRBXTVTFY-UHFFFAOYSA-N
559.949968557	4406350.13121	0.209978430421172	0.850517516365026	2.5408897617273	butyl ethyl ether	PZHIWRCQKBBTOW-UHFFFAOYSA-N
727	3690927.18143	0.650394038507658	0.812670905678441	1.09668574816009	1,2-dihydronaphthalene	KEIFWROAQVVDBN-UHFFFAOYSA-N
447	4973333.79545	1.26858314263089	0.992353285949195	0.486461999342013	1-buten-3-yne	WFYPICNXBKQZGB-UHFFFAOYSA-N
694	2771035.5563	1.08532690192717	0.97797275600761	1.12311489903791	p-mentha-6,8-dien-2-one, (S)-(+)-	ULDHMXUKGWMISQ-VIFPVBQESA-N
702.96906	3801815.80888	0.41011703913146	0.76104277404529	1.73884512591697	2-ethylphenol	IXQGCWUGDFDQMF-UHFFFAOYSA-N
778	4319333.74082	0.55349701048887	0.925022317416301	1.64859135583576	1-nitropiperidine	PFHGNIMWELIXGP-UHFFFAOYSA-N
691	3400378.75048	0.11880841644065	0.805592112121346	3.45331505817265	1,2-dimethoxybenzene	ABDKAPXRBAPSQN-UHFFFAOYSA-N
694	4520197.49998	0.380347286534685	0.84952880738639	2.55597563720355	2-methoxyphenol	LHGVFZTZFXWLCP-UHFFFAOYSA-N
851	3065517.49601	0.675339990653838	0.931577114542654	1.5543219395302	1'-hydroxy-[1,1'-bicyclohexyl]-2-one	AERVJOBGBMEFDV-UHFFFAOYSA-N
647.091754878	3433795.88158	0.890342786613777	0.869705523049952	1.04853873573186	ethoxybenzene	DLRJIFUOBPOJNS-UHFFFAOYSA-N
600.5	3090222.99407	0.439157941058485	0.922984312207227	1.67545802139125	1,2-dimethylcyclohexane	KVZJLSYJROEPSQ-UHFFFAOYSA-N
528	2456229.99956	2.16915037001788	0.558980527701077	0.683245397406152	2,2,3,3,4,4,5,5,5-nonafluoropentan-1-ol	PJRIQFXPYMVWOU-UHFFFAOYSA-N
660.48054	2885748.39923	0.974186195592995	0.863177811735787	0.889264563521837	butylbenzene	OCKPCBLVNKHBMX-UHFFFAOYSA-N
561.261	4259449.42103	0.589046275962899	0.865926909162769	1.31104794192298	propanenitrile	FVSKHRXBFJPNKK-UHFFFAOYSA-N
695	3985149.68225	0.585274049312675	0.883829936351305	2.07903962353489	(iodomethyl)benzene	XJTQJERLRPWUGL-UHFFFAOYSA-N
821	3887588.9858	0.423187273513963	0.867509392945276	2.29060856866273	4-chlorobiphenyl	FPWNLURCHDRMHC-UHFFFAOYSA-N
557.513301485	4034662.09808	1.00021157434563	0.884902296659669	0.737318330263506	3-thiapentane	LJSQFQKUNVCTIA-UHFFFAOYSA-N
536.976578596	9334108.86991	1.38932345287065	0.999986781928407	0.391575063695039	methyl isocyanate	HAMGRBXTJNITHG-UHFFFAOYSA-N
765	4238034.81085	1.87327864426699	0.309549392489894	0.555772595850876	1,2,5-oxadiazole, 3,4-dimethyl-, 2-oxide	YQPMTPLDOVSQDU-UHFFFAOYSA-N
894	3185645.03057	1.38884614194431	0.999986773204083	0.649239762572553	anthracene	MWPLVEDNUUSJAV-UHFFFAOYSA-N
616	3350289.57901	1.34055256251809	0.999950677777716	0.709795104267992	cyclopentyl ethanoate	YFPCLQKFNXUAAK-UHFFFAOYSA-N
38.334	1863393.8479	0.199148773248128	0.999963265443776	1.00004756016968	deuterium	UFHFLCQGNIYNRP-VVKOMZTBSA-N
779.2	953635.392275	0.526241799344528	0.815124432215628	3.2208016574904	(E)-9-tricosene	IGOWHGRNPLFNDJ-HTXNQAPBSA-N
638	5657971.32201	0.410525726687167	0.890053597065707	2.00860512004824	azacycloheptane	ZSIQJIWKELUFRJ-UHFFFAOYSA-N
742	1375322.05174	0.549864102460661	0.824650246661882	3.01156433552579	prop-2-ynyl (2E,4E)-3,7,11-trimethyldodeca-2,4-dienoate	FZRBKIRIBLNOAM-WHVZTFIZSA-N
583	4533808.70014	0.573197975019852	0.923697158645726	1.66927521593848	(E)-2-methyl-2-butenal	ACWQBUSCFPJUPN-HWKANZROSA-N
680	2674239.05921	0.209151186541567	0.821056756969617	3.08511957206512	benzene, 2-ethyl-1,3,4-trimethyl-	KQRPSLILDAZZMH-UHFFFAOYSA-N
671	2339648.25385	0.342714498894034	0.781096214052348	1.96823966657733	1,3-diisopropylbenzene	UNEATYXSUBPPKP-UHFFFAOYSA-N
561.58168	3060689.95422	1.2272000726258	0.999996567762512	0.723350164135143	ethyl 2-methylpropanoate	WDAXFOBOLVPGLV-UHFFFAOYSA-N
874	3355613.82644	0.665232471355482	0.896808157817172	1.93515398641246	9-methylanthracene	CPGPAVAKSZHMBP-UHFFFAOYSA-N
657	6626491.71793	0.621643962858061	0.915863869284357	1.74204006020689	methanesulfonyl chloride	QARBMVPHQWIHKH-UHFFFAOYSA-N
622	2957123.37425	0.047863704493685	0.255475014702615	1.05945212570165	2,3,3-trimethyl-2-pentanol	FBWWGYIEJGQWJP-UHFFFAOYSA-N
739	3922550.74436	1.12126682782853	0.993953932230166	1.03123312313429	4-(2-butyl)phenol	ZUTYZAFDFLLILI-UHFFFAOYSA-N
645.845400613	4675387.17998	0.398324267273015	0.811462469881917	1.51956213594917	4-methylpyridine	FKNQCJSGGFJEIZ-UHFFFAOYSA-N
604.4	3449982.38895	2.32585816309269	0.502099517651543	0.575533609517744	2-methyl-1-pentanol	PFNHSEQQEPMLNI-UHFFFAOYSA-N
345.029069235	2670844.30098	0.720495591979213	0.836320304916164	1.03231942594989	octafluoropropane	QYSGYZVSCZSLHT-UHFFFAOYSA-N
741	3720223.16768	0.745083890275592	0.855346099393222	1.49900010156957	2-phenoxyethanol	QCDWFXQBSFUVSP-UHFFFAOYSA-N
808	2382462.31106	1.0360679162543	0.790394077139915	1.2222613746783	benzyl phenylacetate	MIYFJEKZLFWKLZ-UHFFFAOYSA-N