Tc	Pc	c0	c1	c2	name	inchikey
594	4900552.5663	0.675024006933135	0.920728535408425	1.69648891750487	2-butenenitrile, 2-methyl-, (2Z)-	IHXNSHZBFXGOJM-HYXAFXHYSA-N
523.97124	1558419.81672	1.99242128224523	0.99936527689301	0.564843947504416	eicosafluorononane	UVWPNDVAQBNQBG-UHFFFAOYSA-N
716	2929341.87159	0.473963305779709	0.508308033710847	1.24415306926187	2-butylphenol	GJYCVCVHRSWLNY-UHFFFAOYSA-N
761	4864317.74023	0.79951977901034	0.999770185372817	0.780145549095728	(Z)-1,2-diiodoethene	CVOGMKGEVNGRSK-UPHRSURJSA-N
810	1575570.62281	0.59016594910385	0.872912032445421	2.21784257743495	1,1-dicyclohexylheptane	HPTHOHVOEWQDAX-UHFFFAOYSA-N
583.5	3373823.04513	1.40698132146133	0.999939983100054	0.525530113965415	3-thiahexane	ZDDDFDQTSXYYSE-UHFFFAOYSA-N
795.9	913567.390074	0.362403055544468	0.800136916421863	3.59012180283854	tricosane	FIGVVZUWCLSUEI-UHFFFAOYSA-N
587	2042230.33635	0.711668915238286	0.908548954292866	1.81303472160993	tetraethoxysilane	BOTDANWDWHJENH-UHFFFAOYSA-N
748	3860395.5497	0.540053146763313	0.828118601194173	1.34337979247053	1,2-dibromobenzene	WQONPSCCEXUXTQ-UHFFFAOYSA-N
812.8	858235.518595	0.599701720926138	0.828550245099464	2.93214424330666	pentacosane	YKNWIILGEFFOPE-UHFFFAOYSA-N
672	3671968.5274	0.338153910543354	0.838181192973385	2.74728217640771	2-(2-methoxyethoxy)ethanol	SBASXUCJHJRPEV-UHFFFAOYSA-N
618	2112193.44557	1.31526252100882	0.991753244382937	0.969119708634898	diethyl ethanedioate	WYACBZDAHNBPPB-UHFFFAOYSA-N
718	4424796.78473	0.736874939472806	0.895260894093266	1.95186693733014	1,8-diaza-7-bicyclo[5.4.0]undecene	GQHTUMJGOHRCHB-UHFFFAOYSA-N
901	3009212.07828	0	0.305729673053233	0.586883047553315	1,6-diisocyanatohexane	RRAMGCGOFNQTLD-UHFFFAOYSA-N
685	3312014.07058	1.00538067700119	0.819709837574176	1.11638519485799	trans-1,2-dibromocyclohexane	CZNHKZKWKJNOTE-PHDIDXHHSA-N
566	5251355.58501	0.69620625004499	0.89363449096959	1.96990686907221	1-chloro-2-hydroxyethane	SZIFAVKTNFCBPC-UHFFFAOYSA-N
736	1279163.45334	0.619546378937605	0.821508711621375	3.07678296871883	methyl (Z,Z)-9,12-octadecadienate	WTTJVINHCBCLGX-NQLNTKRDSA-N
669	2387236.58707	0.85191342170906	0.93581123169648	1.49940249615598	ethyl phosphate	DQWPFSLDHJDLRL-UHFFFAOYSA-N
627	3956160.84089	0.791512474915747	0.910305923508159	1.79588334374975	2-methylenebutanoic acid	WROUWQQRXUBECT-UHFFFAOYSA-N
698	3249991.85057	0	0.171377180756528	0.845666485582062	2,2-dimethylbutanoic acid	VUAXHMVRKOTJKP-UHFFFAOYSA-N
675.67223309	1685332.91009	0.382704147680937	0.833041116685425	2.84436963785583	tridecane	IIYFAKIEWZDVMP-UHFFFAOYSA-N
640.9	2454409.21903	0.000290234717858718	0.166747201064158	0.956508190473862	5-decyne	JWBQJUFCNOLNNC-UHFFFAOYSA-N
747.7	1507937.41916	0.837294824003267	0.857418422435353	2.43448988535068	3-methyleicosane	GZCXIMGMPAZPPM-UHFFFAOYSA-N
719	2696504.9003	2.68246783907961	0.628175486823627	0.552437032772331	1,2-octanediol	AEIJTFQOBWATKX-UHFFFAOYSA-N
867.2	634514.819151	0.562623126484472	0.805915577158796	3.44084749346624	tritriacontane	SUJUOAZFECLBOA-UHFFFAOYSA-N
622	2806513.28064	0.717248135045846	0.915696081720038	1.74373265608969	propane, 2,2'-oxybis[2-chloro-	BULHJTXRZFEUDQ-UHFFFAOYSA-N
739.92371134	3851865.67943	2.39149354617362	0.998465030572778	0.513793394032875	1,6-hexanediol	XXMIOPMDWAUFGU-UHFFFAOYSA-N
793	2988221.68855	0.838790197194226	0.890771770512999	2.00193573176457	1,2,3,4-tetrahydrofluoranthene	HWEWZSACZIURKQ-UHFFFAOYSA-N
657	3841840.66762	1.07806912641063	0.99985655971912	0.859200131082458	1,4-dichloropentane	IJZUPZAYWWVHIO-UHFFFAOYSA-N
753.7	1512343.49814	0.78613758556235	0.90432300550062	1.85580599045297	1-aminopentadecane	JPZYXGPCHFZBHO-UHFFFAOYSA-N
854.710995969	686781.877303	0.368786297400507	0.784552611687607	4.01901170644684	hentriacontane	IUJAMGNYPWYUPM-UHFFFAOYSA-N
827	4806910.70921	0.310371541698273	0.694087689240858	1.73401055270001	2,6-dinitrotoluene	XTRDKALNCIHHNI-UHFFFAOYSA-N
776	2757034.91471	1.21643719461526	0.999832838418301	0.919871707609888	(4-methylphenyl)phenylmethane	SIYISNUJKMAQBV-UHFFFAOYSA-N
848	4218354.69049	0.46319668525202	0.876031585596642	2.17771022095955	1-iodonaphthalene	NHPPIJMARIVBGU-UHFFFAOYSA-N
735	1204243.35161	1.06914792920809	0.678254318028836	1.31395647834837	1,2,3-propanetriyl tributanoate	UYXTWWCETRIEDR-UHFFFAOYSA-N
672	2884660.82145	0	0.513366764738464	1.33166401424509	hexyl isocyanate	ANJPRQPHZGHVQB-UHFFFAOYSA-N
599	5700731.2723	0.678761889715521	0.917794427846265	1.7234039535817	1-nitropropene	RIHXMHKNTLBIPJ-UHFFFAOYSA-N
680	3139329.8902	0.0853429223484958	0.686530916712167	1.98965116626507	(1-methylpropenyl)benzene	UGUYQBMBIJFNRM-UHFFFAOYSA-N
604.96	3700082.45251	0.738899402731941	0.917027738276807	1.73085503557378	2-methylpropanoic acid	KQNPFQTWMSNSAP-UHFFFAOYSA-N
663	4602619.07436	1.55723206096697	0.999426721114942	0.788176455719405	1,1-dinitropropane	DFHLCCWFLMSKJI-UHFFFAOYSA-N
585	3769952.05174	0.108512726973691	0.834122412758999	2.81151160605676	ethylidenecyclopentane	VONKRKBGTZDZNV-UHFFFAOYSA-N
634	3514784.49901	0	0.435102908231621	0.505959946315408	1-methylpropyl methanoate	OAEQYDZVVPONKW-UHFFFAOYSA-N
893.7	549193.884762	0.508330180664562	0.791836234923142	3.8468608848335	octatriacontane	BVKCQBBZBGYNOP-UHFFFAOYSA-N
872.9	614704.4157	0.611818010733206	0.796212392410922	3.17783463233996	tetratriacontane	GWVDBZWVFGFBCN-UHFFFAOYSA-N
642.7	3087734.13264	0	0.312047920310252	0.726483746449206	4-octyne	GZTNBKQTTZSQNS-UHFFFAOYSA-N
893.904972695	6237252.4379	0.575991886634383	0.825797624565838	1.84461656107719	4,7-phenanthroline	DATYUTWESAKQQM-UHFFFAOYSA-N
619	2342556.57534	0.743407724541179	0.923247948676204	1.67338923973988	2-methylpropyl 3-methyl-2-butenoate	OORIYKITSHAVJG-UHFFFAOYSA-N
678	3647584.86728	0	0.171156596736599	0.866249529398853	2-(ethylthio)ethanol	LNRIEBFNWGMXKP-UHFFFAOYSA-N
644.193798	4087385.58923	0.439064926677409	0.827651037954708	1.7214490446462	2,5-dimethylpyridine	XWKFPIODWVPXLX-UHFFFAOYSA-N
666	3744406.53643	0.0757881854104986	0.534578400480693	1.36343527722751	1-ethenyl-3-methylbenzene	JZHGRUMIRATHIU-UHFFFAOYSA-N
731	5041435.04336	1.57607283467694	0.999530657358414	0.867667796194004	1,5-pentanediol	ALQSHHUCVQOPAS-UHFFFAOYSA-N
634	3242712.08647	0	0.333654280119348	0.664330673204258	butyl isocyanate	HNHVTXYLRVGMHD-UHFFFAOYSA-N
728	1831741.46278	0.0126505853900833	0.00300228650463658	0.975336494075862	n-tridecylaldehyde	BGEHHAVMRVXCGR-UHFFFAOYSA-N
698.27047	2835361.8638	0.291170386978082	0.824345364341679	3.01501389008683	3-methyl-6-isopropylphenol	MGSRCZKZVOBKFT-UHFFFAOYSA-N
657.901056	2803612.17381	0.539636603777142	0.923747180121193	1.66851090489017	1,4-diethylbenzene	DSNHSQKRULAAEI-UHFFFAOYSA-N
537.2	4425130.06105	1.23253935495558	0.999999915478301	0.682731166252352	butanal	ZTQSAGDEMFDKMZ-UHFFFAOYSA-N
865	3487021.07281	0.000904230062901763	0.198324693945742	0.823840571448393	1,3-dinitrobenzene	WDCYWAQPCXBPJA-UHFFFAOYSA-N
568	8149908.97523	0.681494674793132	0.902604585503119	1.87336945418342	2-propyn-1-ol	TVDSBUOJIPERQY-UHFFFAOYSA-N
603	3397965.4536	1.21257635613325	0.988839106283911	1.05938528260141	3-methyl-1-pentanol	IWTBVKIGCDZRPL-UHFFFAOYSA-N
782	2760952.93056	1.3955639099804	0.999267459280235	0.825101715334504	vanillin	MWOOGOJBHIARFG-UHFFFAOYSA-N
789	864240.923081	1.50594353867704	0.986099838985707	1.07467746838299	trioctylamine	XTAZYLNFDRKIHJ-UHFFFAOYSA-N
603.405046292	4526979.7945	0.657663742988133	0.918078989164494	1.72032053049439	propanoic acid	XBDQKXXYIPTUBI-UHFFFAOYSA-N
640.1	1963352.37691	2.40152651288309	0.701313056433152	0.472947575587774	2,4-dimethyldecane	OJAFXEXESSNPMH-UHFFFAOYSA-N
810	2206256.96437	2.62148733317439	0.955777663088345	0.30772934207229	bis(1-phenylethyl) ether	WXAVSTZWKNIWCN-UHFFFAOYSA-N
741	3286863.34949	0.820133316974015	0.881415431849418	2.11153775918069	methyl 4-(dimethylamino)benzoate	DBQGARDMYOMOOS-UHFFFAOYSA-N
861.3	656079.022186	0.793951287263584	0.793340951284295	2.40036655588473	dotriacontane	QHMGJGNTMQDRQA-UHFFFAOYSA-N
820	943268.125909	0.486562251142059	0.817522487283623	3.16525493792523	methyl docosanoate	QSQLTHHMFHEFIY-UHFFFAOYSA-N
888.8	564651.149753	0.462547307891567	0.788095167626296	3.96033382133444	heptatriacontane	PXEZIKSRSYGOED-UHFFFAOYSA-N
722	3213910.33677	1.51101731628727	0.99779512266638	0.653476679421014	4-(1-methylethyl)benzenamine	LRTFPLFDLJYEKT-UHFFFAOYSA-N
535.95	4218306.40316	1.33073802880282	0.999999971804228	0.969747361470188	butan-2-ol	BTANRVKWQNVYAZ-UHFFFAOYSA-N
739	3888836.05235	0.809675222732909	0.911196629854389	1.78698130119804	N,N-dimethylbenzamide	IMNDHOCGZLYMRO-UHFFFAOYSA-N
643	3689149.96386	0	0.384389698201485	0.544337149022899	isopropyl nitrate	GAPFWGOSHOCNBM-UHFFFAOYSA-N
664	5201603.02866	0.576574933901036	0.92369790557464	1.66923068057595	1-cyanocyclopentane	SVPZJHKVRMRREG-UHFFFAOYSA-N
804.6	870210.14168	1.1794008715792	0.909534039382248	1.5283748899625	tetracosane	POOSGDOYLQNASK-UHFFFAOYSA-N
760	3973660.93933	0	0.170237097265811	0.917821054065937	2-(chloromethyl)-1,3-benzoxazole	ANRDUCQCZKLSGF-UHFFFAOYSA-N
850	725482.477499	0.544029415466881	0.696748166967461	2.541259959255	triacontane	JXTPJDDICSTXJX-UHFFFAOYSA-N
526	1682194.04202	0	0.130816776599885	1.12805773449731	trans-perfluorobicyclo[4.3.0]nonane	NLQOEOVORMKOIY-JCYAYHJZSA-N
777.784827706	1029903.81869	0.539007299008562	0.823504020190339	2.76920359494592	heneicosane	FNAZRRHPUDJQCJ-UHFFFAOYSA-N
592.997789117	5739951.21842	1.32116114166738	0.999904605681051	0.656178468867972	acetic acid	QTBSBXVTEAMEQO-UHFFFAOYSA-N
530	1711366.8463	0	0.176573695361565	1.19594647240241	cis-perfluorobicyclo[4.3.0]nonane	NLQOEOVORMKOIY-XIXRPRMCSA-N
844	3245227.03408	0.680742133784795	0.923449289856801	1.6711441653018	10H-9-oxaanthracene	GJCOSYZMQJWQCA-UHFFFAOYSA-N
891	3433903.44171	0	0.190783562676914	0.948115360611297	2,5-dibromobenzoic acid	SQQKOTVDGCJJKI-UHFFFAOYSA-N
623	2682184.41413	0	0.143152133347593	1.06026079414064	2-methyl-3-heptanol	QGVFLDUEHSIZIG-UHFFFAOYSA-N
776	2826348.79847	0.323137182034937	0.742979224374112	1.98915084987985	2-propylnaphthalene	LQBNOHAXLHRIQW-UHFFFAOYSA-N
819	811429.550044	0.739765925938978	0.848207960868263	2.57801094670788	hexacosane	HMSWAIKSFDFLKN-UHFFFAOYSA-N
744	1701728.49675	2.97821139424343	0.610197695978149	0.511069003739416	tetradecanal	UHUFTBALEZWWIH-UHFFFAOYSA-N
746	4401982.01641	0.336848997856421	0.746195991126615	2.02997300947397	3-methoxyphenol	ASHGTJPOSUFTGB-UHFFFAOYSA-N
786.343087314	993351.243088	0.659320999095432	0.815828458736381	2.3870857538374	docosane	HOWGUJZVBDQJKV-UHFFFAOYSA-N
668.543141	2315841.9336	0.904929811314808	0.697106790024243	1.2228669660252	2-decanol	ACUZDYFTRHEKOS-UHFFFAOYSA-N
846	827052.451358	0	0.604901052369623	3.19438348224904	methyl tetracosanoate	XUDJZDNUVZHSKZ-UHFFFAOYSA-N
704	1900470.31644	0.773958290469905	0.923619090069105	1.66902107297228	1,2,4,5-tetraethylbenzene	NSOYZSQQDPNCAC-UHFFFAOYSA-N
732	1789787.16211	1.46459875185627	0.996848696107967	0.975344940342685	1-tridecanol	XFRVVPUIAFSTFO-UHFFFAOYSA-N
535.76058	5392583.36919	1.10270539379999	0.846350925453915	0.50623363514907	(Z)-1,2-dichloroethene	KFUSEUYYWQURPO-UPHRSURJSA-N
464.106614634	6008106.54101	1.43050555352173	0.999404491519254	0.606245569683377	ethanal	IKHGUXGNUITLKF-UHFFFAOYSA-N
693	3364538.3046	0	0.37109908982502	0.781051398604078	3a,4,7,7a-tetrahydro-4,7-methanoindene	HECLRDQVFMWTQS-UHFFFAOYSA-N
780	2420819.3355	1.38996232136159	0.983838180893284	0.904572582367938	1,3-diphenylpropane	VEAFKIYNHVBNIP-UHFFFAOYSA-N
619.45905	4895713.23657	1.27963500834782	0.999947964934687	0.889859213790864	cyclopentanol	XCIXKGXIYUWCLL-UHFFFAOYSA-N
600	4374177.6546	0	0.396259913779132	0.570818358311799	(1.alpha.,2.beta.,4.beta.,5.alpha.)-tricyclo[3.1.0.02,4]hexane	CKOTZHFYKVFQTO-GUCUJZIJSA-N
609	4804674.91722	0.642695455564607	0.92365629549841	1.66964777396044	trispiro[2.0.0.2.1.1]nonane	JCHCWAJGYWGXMQ-UHFFFAOYSA-N
693.710258824	2858497.42434	2.04040507801581	0.00138087485933514	1.09331463536619	octanoic acid	WWZKQHOCKIZLMA-UHFFFAOYSA-N
800	3200000	0.877525640101232	0.900301162160674	1.8979030438584	3,6,9-trioxa-1,11-undecanediol	UWHCKJMYHZGTIT-UHFFFAOYSA-N
505	4600431.9954	1.08053190220412	0.999999960247478	0.666468168683733	exo-methylenecyclobutane	QIRVGKYPAOQVNP-UHFFFAOYSA-N
778	2155669.60552	1.91423904205821	0.970712215433483	0.532731396750786	1,1-diphenylbutane	SZFDQMKAGLCYPA-UHFFFAOYSA-N
705	4028235.30562	0.562887600981479	0.923694103741488	1.66932591756524	1,3,5-trichloro-2-fluorobenzene	NCPNJBWUNXRYGW-UHFFFAOYSA-N
736	1990741.87865	1.22580944626831	0.00168583599019561	1.48298616147261	2-[2-[2-(2-hydroxypropoxy)propoxy]propoxy]-1-propanol	QVHMSMOUDQXMRS-UHFFFAOYSA-N
736	5813407.13088	0.768535344626739	0.881071999620017	2.11573076647036	pyridine N-oxide	ILVXOBCQQYKLDS-UHFFFAOYSA-N
741	2964845.76497	0.876741981913094	0.92394901065148	1.66341181423188	2-methoxy-4-(1-propenyl)phenol	BJIOGJUNALELMI-UHFFFAOYSA-N
506	2672218.02385	0.830121299317696	0.136833531692381	1.02133914518922	2,2,3,3,4,4,4-heptafluorobutanol	WXJFKAZDSQLPBX-UHFFFAOYSA-N
883.6	563200.404347	0.489310384856555	0.792728722170151	3.8030149591849	hexatriacontane	YDLYQMBWCWFRAI-UHFFFAOYSA-N
599	2601775.20856	0.68337011149728	0.92369525902878	1.66931061494782	2-butenoic acid, 3-methyl-, 1-methylethyl ester	QQVQBUXUAZCLLZ-UHFFFAOYSA-N
831	2070159.70653	1.53919436903216	0.000163995370044943	1.5579286898999	triphenylamine	ODHXBMXNKOYIBV-UHFFFAOYSA-N
555	4239616.04923	0.269637408390905	0.851243883065208	2.52854969435419	2-methylpropanenitrile	LRDFRRGEGBBSRN-UHFFFAOYSA-N
708	2855899.50855	0.444436548851412	0.840631546059798	1.71115510676514	1,3-dimethyltricyclo[3.3.1.1(3,7)]decane	CWNOIUTVJRWADX-UHFFFAOYSA-N
770	2200000	1.62237239420212	0.998434673648497	0.859734234697603	1,10-decanediol	FOTKYAAJKYLFFN-UHFFFAOYSA-N
719.33918	2050427.1906	2.56030279048062	0.99997890982855	0.49096984418083	dodecan-1-ol	LQZZUXJYWNFBMV-UHFFFAOYSA-N
649.1	2402080.40162	1.59094903880616	0.999859212949221	0.530215930701405	5-thianonane	HTIRHQRTDBPHNZ-UHFFFAOYSA-N
828	9835654.987	0	0.411202419332518	0.512784551724626	N-methyl-2H-tetrazole	VRESBNUEIKZECD-UHFFFAOYSA-N
650	2270914.70541	0.813624853752262	0.91991538788224	1.70395890082333	pentyl 3-methyl-2-butenoate	NMUKAHSPJUKENF-UHFFFAOYSA-N
688	1994765.37678	0.544697034416829	0.80591100202637	1.80041032492353	3-thiaundecane	WAITXWGCJQLPGH-UHFFFAOYSA-N
702.1	1878904.95165	0.542379853640864	0.7547175458799	1.74257738181143	2-dodecanone	LSKONYYRONEBKA-UHFFFAOYSA-N
780	2263808.74624	2.3039936721656	0.00226340877108811	0.968626149031355	2-pentylnaphthalene	QCMRTPFHMFJUDP-UHFFFAOYSA-N
889.550237636	6691427.00494	2.05449983421163	0.62237419384992	0.41341145648884	2-hydroxynaphthalene	JWAZRIHNYRIHIV-UHFFFAOYSA-N
685	3593805.45903	0.37892828681962	0.00264901888981813	1.16043494062881	2,5-hexanediol	OHMBHFSEKCCCBW-UHFFFAOYSA-N
610.4	3384459.47833	1.55905262207696	0.999935312341072	0.835070362650241	hexan-1-ol	ZSIAUFGUXNUGDI-UHFFFAOYSA-N
732	3460000	0.907381124052732	0.789338998295414	1.11930477019278	3-phenyl-1-propanol	VAJVDSVGBWFCLW-UHFFFAOYSA-N
647.1	4282161.3414	1.82785261697876	0.999998870747181	0.583610434068712	cyclohexanol	HPXRVTGHNJAIIH-UHFFFAOYSA-N
543.822835	3709975.9234	2.2515557140486	0.999999181519429	0.513057705763298	2-methylbutan-2-ol	MSXVEPNJUHWQHW-UHFFFAOYSA-N
584	2828736.03943	0.859195772545564	0.931645542231567	1.54843741738518	2,4,4-trimethyl-2-pentanol	BSYJHYLAMMJNRC-UHFFFAOYSA-N
651.325742252	2815336.76567	1.80772901669439	0.999348843599473	0.730316137295993	octan-1-ol	KBPLFHHGFOOTCA-UHFFFAOYSA-N
784	3144192.25579	1.27461301331328	0.995921522177478	0.811358617147548	4-methylbiphenyl	ZZLCFHIKESPLTH-UHFFFAOYSA-N
875	2915381.79972	0.0737552833367404	0.000129133234642801	0.668198364180916	methyl p-toluenesulfonate	VUQUOGPMUUJORT-UHFFFAOYSA-N
578	3291617.95394	0.6602507628812	0.923402720431644	1.67178124032313	methyl 3-methyl-2-butenoate	FZIBCCGGICGWBP-UHFFFAOYSA-N
594	2855586.4096	0.625507199544535	0.922866588948587	1.67681550167835	N,N'-methylenebisdiethylamine	UNEXJVCWJSHFNN-UHFFFAOYSA-N
752	1314654.02776	0.692645017715787	0.896454213439481	1.93898140615834	6,10,14-trimethyl-3,5-pentadecadien-2-one	LGSXJEDIGQMTRC-BYYJQVKUSA-N
632.647651385	3109963.65839	1.60743576645759	0.999981348496971	0.844608064920414	heptan-1-ol	BBMCTIGTTCKYKF-UHFFFAOYSA-N
177.49702403	6646409.43122	0.678116434558132	0.918073852837338	1.72122368455519	nitrogen oxide (NO)	MWUXSHHQAYIFBG-UHFFFAOYSA-N
587.96357084	3897551.80817	1.43611214149522	0.999981246348254	0.999792199470654	pentan-1-ol	AMQJEAYHLZJPGS-UHFFFAOYSA-N
615	4117485.5888	0.644429832081691	0.910944664292033	1.7888330333857	2-methyl-2-propenoic acid	CERQOIWHTDAKMF-UHFFFAOYSA-N
779	2630954.78611	0.0186952636346523	0.056607391290118	0.946083263793161	1-butylnaphthalene	URGSMJLDEFDWNX-UHFFFAOYSA-N
613	2871667.44772	0.661977021792173	0.922888040134801	1.67630420981971	propyl 3-methyl-2-butenoate	JLAVFLRQAWOKRL-UHFFFAOYSA-N
708.2	2454090.51555	0.596416188797809	0.923080797343101	1.67441639428176	5,6-dithiadecane	CUDSBWGCGSUXDB-UHFFFAOYSA-N
665	4013030.67771	0.55779432002742	0.713487328463895	1.94995739098654	1,2-pentanediol	WCVRQHFDJLLWFE-UHFFFAOYSA-N
612	4158910.88436	2.41500818122476	0.999329365738578	0.234472037414907	ethyl nitrate	IDNUEBSJWINEMI-UHFFFAOYSA-N
633	2520964.30991	0.744453456599931	0.91836061059542	1.71823851066051	butyl 3-methyl-2-butenoate	IJZWZSGPEJOCHI-UHFFFAOYSA-N
808	982078.925559	0.558343203631042	0.829621679968877	2.9009709280232	octadecylbenzene	WSVDSBZMYJJMSB-UHFFFAOYSA-N
828.1	787738.422282	0.979318206429026	0.84980318011228	1.85764699306254	heptacosane	BJQWYEJQWHSSCJ-UHFFFAOYSA-N
672.273534446	2535105.48144	1.8091509200442	0.999890624320219	0.809654072180201	nonan-1-ol	ZWRUINPWMLAQRD-UHFFFAOYSA-N
687.222683865	2326215.31397	1.83350042434796	0.999937811550389	0.871616085201984	decan-1-ol	MWKFXSUHUHTGQN-UHFFFAOYSA-N
702.9441	2284040.7688	1.92335159742265	0.999934891459338	0.820887999208066	1-undecanol	KJIOQYGWTQBHNH-UHFFFAOYSA-N
685	1743370.38027	0.735614252128709	0.890456928289106	2.00137359482602	1,1-dibutyl-1-pentanol	RWKMYNWNESNJQQ-UHFFFAOYSA-N
795	2089814.00351	1.05099366849663	0.607847232211751	1.12459470691984	2-hexylnaphthalene	ZGHJVWFEQWVPTB-UHFFFAOYSA-N
800	1755264.61958	1.46773661709964	0.968218568847968	1.10107468319886	2-octylnaphthalene	GRHRSOQTWNKWMH-UHFFFAOYSA-N
839.257221539	926993.877095	0	0.416413514119258	1.77194617741669	1,1-bis(4-methylcyclohexyl)dodecane	ARDIJKGJYOGVEO-UHFFFAOYSA-N
682.149000443	2319982.16608	1.46021044994647	0.955988858383144	0.592923178007451	cyclohexyl butanoate	VZHUBBUZNIULNM-UHFFFAOYSA-N
693	1441355.27382	1.32130116307645	0.900446357989022	0.635615348889406	pentanoic acid, cyclohexyl ester	YLCHTSSXNSNXSW-UHFFFAOYSA-N
658.9	2757428.23225	0.798649386542259	0.696273987080059	0.00000236374082551727	cyclohexene, 1-methyl-3-(1-methylethenyl)-	UXZIDIYMFIBDKT-UHFFFAOYSA-N
606	5437812.84925	0.161074312809435	0.85031048874479	2.54395468076865	propenoic acid	NIXOWILDQLNWCW-UHFFFAOYSA-N