Tc	Pc	c0	c1	c2	name	inchikey
527	9115443.59263	0.597053536790184	0.923688524950529	1.66940569496421	azacyclobutane	HONIICLYMWZJFZ-UHFFFAOYSA-N
922	960120.789809	2.16059409644643	0.946305086526378	0.724531453042135	1,1,6,6-tetraphenylhexane	WUHPEKSUKIJIJF-UHFFFAOYSA-N
711	1534149.65008	0.419274902326623	0.823389884564924	3.03793232224027	methyl tridecanoate	JNDDPBOKWCBQSM-UHFFFAOYSA-N
902	4558449.00256	1.01481523257826	0.417293469639717	0.611046859345869	4-fluoro-phenyl-1H-imidazole	KKKSMWMXKUAZHK-UHFFFAOYSA-N
533.5	4638285.44053	0.905422910491189	0.99999426643521	0.885263466468233	1-hexyne	CGHIBGNXEGJPQZ-UHFFFAOYSA-N
706	2353645.97543	0.91687452635919	0.856376635255113	1.16250300643209	3,5-di-tert-butyltoluene	WIXDSJRJFDWTNY-UHFFFAOYSA-N
468.95132	7241286.18559	0.557514590539795	0.854271590619862	1.05068975531644	oxirane	IAYPIBMASNFSPL-UHFFFAOYSA-N
760	2601930.00702	0.758732232987532	0.893142918827626	1.92636397578248	1,8-bis(dimethylamino)naphthalene	GJFNRSDCSTVPCJ-UHFFFAOYSA-N
728	2911258.84459	1.02519515857491	0.876525047066798	0.88227700624931	benzene, (trimethoxymethyl)-	IECKAVQTURBPON-UHFFFAOYSA-N
512	1477534.1011	0.344042012519284	0.830012678458278	2.90228970501643	1H-perfluorooctane	KBHBUUBXEQUIMV-UHFFFAOYSA-N
559	3115129.91631	0.240786744897802	0.849946076809832	2.52620548664644	2,2-dimethylpropanenitrile	JAMNHZBIQDNHMM-UHFFFAOYSA-N
587.121	5171935.81031	1.42281679517433	0.99981987322115	0.508096166035841	1,4-dioxane	RYHBNJHYFVUHQT-UHFFFAOYSA-N
533	3257207.05621	0.461542528573134	0.802152993280528	1.65426475363989	1-(methoxymethoxy)propane	XDEBEEKYERBCBM-UHFFFAOYSA-N
515.5	5200102.39732	0.231764414922877	0.819370005850509	1.76558593869546	(E)-1,2-dichloroethene	KFUSEUYYWQURPO-OWOJBTEDSA-N
631	5085166.61504	0.467519114485033	0.835047998238604	1.48853877923531	2-methylpyrazine	CAWHJQAVHZEVTJ-UHFFFAOYSA-N
536.123747756	5453183.08709	1.28836428335225	0.999973439293812	0.504052531779219	trichloromethane	HEDRZPFGACZZDS-UHFFFAOYSA-N
428.608362648	4031995.62641	0.381055901828826	0.845179545056799	1.4152076315877	(E)-2-butene	IAQRGUVFOMOMEM-ONEGZZNKSA-N
736	2359243.18334	1.68260326413122	0.999952326499307	0.601718396276836	2,4-bis(1-methylethyl)phenol	KEUMBYCOWGLRBQ-UHFFFAOYSA-N
658.8	2365620.01201	0.442184894816254	0.834906401816654	2.21008662621026	1-chlorononane	RKAMCQVGHFRILV-UHFFFAOYSA-N
574	4245811.59342	0.314437979761237	0.844715774080919	1.98754817416785	(E)-2-butenal	MLUCVPSAIODCQM-NSCUHMNNSA-N
566.628813857	1251109.45893	0.368954065783657	0.785079943158067	4.06950110167063	pentadecafluorooctanoic acid	SNGREZUHAYWORS-UHFFFAOYSA-N
586	4440001.38126	1.55421544005209	0.998923128984655	0.541191833707857	4-methyl-1,3-dioxane	INCCMBMMWVKEGJ-UHFFFAOYSA-N
456.835460229	3665535.15165	0.60925653997364	0.817920974537424	1.10271664244906	1,1-dichloro-2,2,2-trifluoroethane	OHMHBGPWCHTMQE-UHFFFAOYSA-N
687	4962843.32493	0.921112085562026	0.999949613161093	0.907237795119953	2-chloropyridine	OKDGRDCXVWSXDC-UHFFFAOYSA-N
856	2561234.12701	0.791142937157409	0.831806070613392	1.2850900513705	1-phenylnaphthalene	IYDMICQAKLQHLA-UHFFFAOYSA-N
730	3401046.18145	1.29877436524956	0.998732453609192	0.80131261615706	4-phenyl-2-butanone	AKGGYBADQZYZPD-UHFFFAOYSA-N
863.060374747	997307.301034	0.992571846457775	0.99997283436483	0.841764708252551	diphenyl chlorophosphate	BHIIGRBMZRSDRI-UHFFFAOYSA-N
773.032376471	3297110.32667	0.229316042709232	0.834154333291066	2.82192633617638	diphenyl ether	USIUVYZYUHIAEV-UHFFFAOYSA-N
817	857893.385988	0.995626584110602	0.889938927261827	2.01140390296205	3-cyclohexyleicosane	PANSPXWYXYRKGU-UHFFFAOYSA-N
600	1854447.43863	0.238343219137145	0.80455517932038	3.46706613322527	2,2,3,3,4,4,5,5-octafluoropentyl methacrylate	ZNJXRXXJPIFFAO-UHFFFAOYSA-N
603	3527260.78966	0.607685890522347	0.914546656901181	1.75470800527994	(.+-.)-3-methylhexanal	ZSJUABCTGCNBPF-UHFFFAOYSA-N
772	4833472.44071	0.800666491613803	0.799060030996439	1.17118946534281	1,2-benzenediol	YCIMNLLNPGFGHC-UHFFFAOYSA-N
301.944901945	3887706.42784	1.347778990267	0.999676422793634	0.440494862558935	chlorotrifluoromethane	AFYPFACVUDMOHA-UHFFFAOYSA-N
656	3644358.69564	0.670769726950096	0.83178813535489	1.08722594346341	4-chlorotoluene	NPDACUSDTOMAMK-UHFFFAOYSA-N
773	3253246.88761	1.36890770721596	0.998516445302961	0.694323820430366	2H-pyran-2-one, tetrahydro-6-propyl-	FYTRVXSHONWYNE-UHFFFAOYSA-N
552.997204828	2551310.4712	1.19332686035184	0.999996680849653	0.71092231021197	2,4-dimethylhexane	HDGQICNBXPAKLR-UHFFFAOYSA-N
608	2421492.59239	0.739917394984293	0.925748845214871	1.63663111340306	2-methylpropyl pentanoate	ADNADZOSMJDVIS-UHFFFAOYSA-N
652	5148952.61327	1.16566047251762	0.770004175457586	0.656651751885016	1-cyanobicyclo[1.1.0]butane	BPPMXXJOMACYJD-UHFFFAOYSA-N
580.3	2431638.53053	1.00313165217006	0.894756819374543	0.850957749507534	2,3,5-trimethylhexane	ODGLTLJZCVNPBU-UHFFFAOYSA-N
821	796069.962404	1.33071294233494	0.945457204932172	1.39014765807109	(2-decyldodecyl)cyclopentane	BVCMEVKMWDECGG-UHFFFAOYSA-N
816	3513213.29946	1.27783446825285	0.767610618096122	0.573586857949993	1-adamantyl methyl ketone	DACIGVIOAFXPHW-UHFFFAOYSA-N
656	2218189.93895	0.379510077435362	0.834477385217959	2.81771600527499	methyl nonanoate	IJXHLVMUNBOGRR-UHFFFAOYSA-N
616.848537171	3539163.61574	0.559173880539955	0.831454501335685	1.29867988240094	1,3-dimethylbenzene	IVSZLXZYQVIEFR-UHFFFAOYSA-N
805	1659345.70135	1.56598567653178	0.999925308031832	0.778294792642104	1,1-diphenylheptane	MZLKNWMNBXHXMA-UHFFFAOYSA-N
762.9248	2893721.90781	0.173825521525644	0.825823281591781	2.98732746351027	aluminum bromide	PQLAYKMGZDUDLQ-UHFFFAOYSA-K
431.204653465	2529982.85226	1.36274329231645	0.42983339156396	0.711459859601582	ethyl pentafluoroethyl ether	CRJVPUWOURIOCW-UHFFFAOYSA-N
665.3	3772919.52796	0.212164989860587	0.834632443791932	2.8132037905167	1-methoxy-3-methylbenzene	OSIGJGFTADMDOB-UHFFFAOYSA-N
529	2289324.72024	2.06206588865048	0.999895432420352	0.702111974253958	2,2,3,3,4,4,5,5,6,6,6-undecafluorohexan-1-ol	QZFZPVVDBGXQTB-UHFFFAOYSA-N
690	2741228.7315	0	0.372040176819698	0.969540112341539	1-(isopropyldithio)propane	YCBVTHJPQCNICU-UHFFFAOYSA-N
586	3923874.67959	0.409635703029857	0.899548105166523	1.90592182273353	.alpha.-ethylacrylonitrile	TVONJMOVBKMLOM-UHFFFAOYSA-N
680	3275155.07843	0.280323136478712	0.757523122412513	1.93010965943061	allyl phenyl ether	POSICDHOUBKJKP-UHFFFAOYSA-N
803	4724059.40841	0.511590014647251	0.879760582444873	2.07257677575865	3,4-dichloroaniline	SDYWXFYBZPNOFX-UHFFFAOYSA-N
541.2	3805684.1413	0.659700908371979	0.825074456262945	1.03436475826758	(Z)-1,3,5-hexatriene	AFVDZBIIBXWASR-WAYWQWQTSA-N
452.69	3516547.46068	0.476881643624117	0.859336797946546	1.24290452704627	3-methyl-1-butene	YHQXBTXEYZIYOV-UHFFFAOYSA-N
646	2020533.00021	0.709087138282636	0.907921922308761	1.81963223403192	5-methylundecane	QULNVKABFWNUCW-UHFFFAOYSA-N
611.421240142	2986509.10786	0.31625999570436	0.82585156250114	2.3032385916994	2-heptanone	CATSNJVOTSVZJV-UHFFFAOYSA-N
616.186852642	3526212.28959	0.388240509006759	0.826271866313875	1.67931539753252	1,4-dimethylbenzene	URLKBWYHVLBVBO-UHFFFAOYSA-N
623	4327971.59647	0.975331690853116	0.999880098648138	0.804759443523568	7-oxabicyclo[4.1.0]heptane	ZWAJLVLEBYIOTI-UHFFFAOYSA-N
820	3723222.1515	0.808724447630105	0.881601995315386	1.05877503624894	acenaphthene	CWRYPZZKDGJXCA-UHFFFAOYSA-N
714	1963910.45786	0.213484867756676	0.812037893039773	3.28001061066934	1,3,5-tri-tert-butylbenzene	GUFMBISUSZUUCB-UHFFFAOYSA-N
391.7	1877378.40102	1.58012776073915	0.823436500112196	0.560905976103765	1,1,1,2,2,3,3-heptafluoro-3-(trifluoromethoxy)propane	CQSSHKTURFXNGF-UHFFFAOYSA-N
857	2706226.13785	0	0.295373745544808	0.809600517039372	oxacyclotridecan-2-one	DQGSJTVMODPFBK-UHFFFAOYSA-N
421.657188119	2328053.47119	1.64620756922959	0.411263258373676	0.718049644983331	2,2,2,1,1-pentafluoroethyl 2,2,2-trifluoroethyl ether	ZOMISZRVOJQGOT-UHFFFAOYSA-N
569.48326	3396938.93664	1.01836332842982	0.902439635824462	0.712569748648197	ethylcyclopentane	IFTRQJLVEBNKJK-UHFFFAOYSA-N
789	1197112.57708	1.41163066977716	0.999896470887026	0.968146699583418	2,5-dimethyl-7-octylbicyclo[4.4.0]decane	MOLLEMOFURMEID-UHFFFAOYSA-N
654	2635850.01287	0.883631001913435	0.918596918576117	1.71629100133807	1,2-ethanedioldipropanoate	UMNVUZRZKPVECS-UHFFFAOYSA-N
614.7	3649997.51587	1.56336301605748	0.999990131275821	0.634460616715677	2-propoxyethanol	YEYKMVJDLWJFOA-UHFFFAOYSA-N
584.107675481	5544089.21847	0.195972452587551	0.822519949616206	3.05330581771537	N-methylethylenediamine	KFIGICHILYTCJF-UHFFFAOYSA-N
601.108	4964971.95349	0.0668710382641826	0.00113661840145071	0.596611612134406	phosphoryl trichloride	XHXFXVLFKHQFAL-UHFFFAOYSA-N
826	4255277.41763	1.24742972581208	0.17975018035307	0.685553696562975	benzeneacetic acid, .alpha.-oxo-	FAQJJMHZNSSFSM-UHFFFAOYSA-N
651	2808899.08995	1.16510531035418	0.946635581408453	0.675607554480996	(1RS,2SR,5RS)-2,6,6-trimethylbicyclo[3.1.1]heptane	XOKSLPVRUOBDEW-DJLDLDEBSA-N
490.3	4034207.84317	0.747772943728396	0.846792760689396	0.885144016093768	(Z)-1,3-pentadiene	PMJHHCWVYXUKFD-PLNGDYQASA-N
696	6113428.35895	0.592559275136385	0.747144246289642	0.975193842474886	azidocyclohexane	ODSNIGPBQIINLA-UHFFFAOYSA-N
595	5966009.3968	1.06250186988483	0.998657598227496	0.658707268845035	dibromomethane	FJBFPHVGVWTDIP-UHFFFAOYSA-N
565.8	2709197.23956	1.66113416072038	0.989757495147832	0.494317521158898	1,7-octadiene	XWJBRBSPAODJER-UHFFFAOYSA-N
734	3411653.35458	0.79985492266938	0.952863407935688	1.31384404237667	1,4-benzoquinone, 2,3,5-trimethyl-	QIXDHVDGPXBRRD-UHFFFAOYSA-N
533.6	4067354.18765	0	0.220449598837866	0.746165682901684	2-methyl-1-propanamine	KDSNLYIMUZNERS-UHFFFAOYSA-N
720	3270431.53259	1.39975272969127	0.999909772908614	0.57651038164956	N-cyclopentylpiperidine	WYANFTXHKVXPFJ-UHFFFAOYSA-N
538.997312432	3907041.3141	1.23246238767561	0.999979132930592	0.674449008695291	1,2-dimethoxyethane	XTHFKEDIFFGKHM-UHFFFAOYSA-N
626	2863475.55377	1.14074424070687	0.9999775399064	0.724283201870345	benzene, 1-chloro-2-(trifluoromethyl)-	DGRVQOKCSKDWIH-UHFFFAOYSA-N
546	4382107.00218	1.45085617960568	0.999988108844282	0.439696977699839	1,1,1-trichloroethane	UOCLXMDMGBRAIB-UHFFFAOYSA-N
642	3325486.54438	2.24688908175515	0.961394959804378	0.370821169561518	(diethylamino)ethanol	BFSVOASYOCHEOV-UHFFFAOYSA-N
780	3089212.73052	1.883305188331	0.752974683845605	0.520144627728973	2,4-di-tert-butylphenol	ICKWICRCANNIBI-UHFFFAOYSA-N
761	3319806.23693	0.938194453236634	0.880067767336496	0.952296076879228	1-chloro-2-nitrobenzene	BFCFYVKQTRLZHA-UHFFFAOYSA-N
593.47	3528885.38795	1.28529206270095	0.99973994332048	0.68908392314382	5-hexen-2-one	RNDVGJZUHCKENF-UHFFFAOYSA-N
386.43802573	4517840.64107	0.300466545460765	0.843728734415493	1.89744659039453	1,1-difluoroethane	NPNPZTNLOVBDOC-UHFFFAOYSA-N
652	2238494.45529	0.977306606274404	0.819733714272641	1.19728929567297	diisopropyl malonate	QRVSDVDFJFKYKA-UHFFFAOYSA-N
745	4685581.79123	0.950139154682853	0.84526561898336	0.855742268811395	2-acetylthiophene	WYJOVVXUZNRJQY-UHFFFAOYSA-N
550.791	3791005.85171	0.699983720949654	0.82664529418721	1.10605893897287	1,2,3,4-tetrafluorobenzene	SOZFIIXUNAKEJP-UHFFFAOYSA-N
589.15	2227091.47456	0.153427383893731	0.780668086009798	4.21689555892633	1,2,2,3,3,4,4,5,5,6,6,7-dodecafluoro-1-heptanol	XTXPJPILJVPUGS-UHFFFAOYSA-N
757	1157247.88886	1.68259950129899	0.80403272029338	0.781903270849035	1-cyclopentyl-2-hexyloctane	XANJIFLJGFYUDD-UHFFFAOYSA-N
544.6	2349620.10792	0.694443871219902	0.827064996022891	1.14470004876141	di-tert-butyl ether	AQEFLFZSWDEAIP-UHFFFAOYSA-N
769	2224153.61762	0.901378734688346	0.902562963200237	1.87425574354081	1-bromo-2-(2-(2-methoxyethoxy)ethoxy)benzene	DRXYAKQXGFANKR-UHFFFAOYSA-N
626	3101804.34016	0.521917863614329	0.874147354564282	1.75621488676616	N,N-dimethylcyclohexylamine	SVYKKECYCPFKGB-UHFFFAOYSA-N
854	3292173.62825	1.88025461534896	0.763922240375421	0.439810979791528	1-heptylimidazole	NQQMTFKCFYHSBJ-UHFFFAOYSA-N
635	3898462.48071	1.09740330093694	0.964333758698633	0.765318746816971	2-ethylpyridine	NRGGMCIBEHEAIL-UHFFFAOYSA-N
724	1464607.25312	2.90152923628167	0.928264576420676	0.410729632893123	1-(2-(2-(pentyloxy)ethoxy)ethoxy)pentane	YXOUPUFJBBFWNL-UHFFFAOYSA-N
716	3101593.27156	1.55908079966403	0.946288482188085	0.723604142608177	2-furanacrylic acid, ethyl ester	MWZBTMXISMOMAE-AATRIKPKSA-N
551	1848794.35903	1.46634296211407	0.999634656762189	0.846905197578679	2,2,3,3,4,4,5,5,5-nonafluoropentyl acrylate	UOKXSSAMUUASQX-UHFFFAOYSA-N
796	5373483.82612	1.58003380864032	0.530115817086531	0.424481868878363	2,4-dichlorophenol	HFZWRUODUSTPEG-UHFFFAOYSA-N
535.591311818	3112290.36753	0.222610329911714	0.848042518911567	2.57963387131052	triethylamine	ZMANZCXQSJIPKH-UHFFFAOYSA-N
680	2282405.47319	0.751132368960676	0.913353615356222	1.69577860673108	R*S*-(1-sec-butoxyethyl)benzene	QOQNKWLTXVLCIQ-WDEREUQCSA-N
215.1944	4951019.60548	0.947850422220994	0.999927409976419	0.491226052036811	oxygen difluoride	UJMWVICAENGCRF-UHFFFAOYSA-N
573.861	1989079.49572	1.26163331518944	0.65371790023682	0.700095239861979	bis(trimethylsilyl)methane	GYIODRUWWNNGPI-UHFFFAOYSA-N
416.2351208	6680329.30842	0.324316219059728	0.844539257470227	1.40105159241141	chloromethane	NEHMKBQYUWJMIP-UHFFFAOYSA-N
697	2936771.14398	1.29242302915714	0.997314674193864	0.663946862999271	6,10-dioxaspiro(4.5)decane, 8,8-dimethyl-	JOXSTTXXTNBJRU-UHFFFAOYSA-N
609.1	3116941.47511	0.786538117813889	0.903841659410624	1.19634080613756	2-thiaheptane	FOJGPFUFFHWGFQ-UHFFFAOYSA-N
502.1	3219518.03728	0.866212245581782	0.946900778162674	0.842952523008682	1,5-hexadiene	PYGSKMBEVAICCR-UHFFFAOYSA-N
503.268022571	4566760.90936	0.269317035124315	0.829835603928495	1.77575496510631	1-chloropropane	SNMVRZFUUCLYTO-UHFFFAOYSA-N
481.54	2379633.40958	1.55883614362916	0.998006431420618	0.628564750373946	1,1,1,2,2,3,3-heptafluoro-4-methoxybutane	ZUBVOEGCTVLBQN-UHFFFAOYSA-N
645	2441217.044	0.353126946486514	0.836426021481419	2.78160525544969	octyl methanoate	AVBRYQRTMPHARE-UHFFFAOYSA-N
550.007057846	2487749.31192	0.490136791069174	0.795842977025552	1.43384280264933	2,5-dimethylhexane	UWNADWZGEHDQAB-UHFFFAOYSA-N
790	789412.33523	1.38543014912933	0.953849959432928	1.30944714497036	5,14-dibutyloctadecane	VZZCEMBCJSFMMD-UHFFFAOYSA-N
730	2227349.61928	1.49985349871989	0.895826720637846	0.589596359514615	(1-butoxy-1-methylethyl)benzene	GATSVPFYPIBDAR-UHFFFAOYSA-N
710	2615997.80385	0.150838895727187	0.810918186121021	3.31952594333689	propyl benzoate	UDEWPOVQBGFNGE-UHFFFAOYSA-N
875	2685668.16001	1.25341043327075	0.984328883928996	1.08549039238978	1,5-dinitronaphthalene	ZUTCJXFCHHDFJS-UHFFFAOYSA-N
517.535374614	3531414.62964	0.817090624476694	0.9998564085976	0.935806502295475	trichloromethylsilane	JLUFWMXJHAVVNN-UHFFFAOYSA-N
677	5126077.30881	1.76819365087831	0.901108287436858	0.581776703754195	cyclopropanecarboxylic acid	YMGUBTXCNDTFJI-UHFFFAOYSA-N
607.8	5093552.61949	0.713305553946441	0.829220811441768	0.878470545542998	2,3-dithiabutane	WQOXQRCZOLPYPM-UHFFFAOYSA-N
681	1869574.22301	0.495198204639803	0.800936061338462	2.32686421898183	bis(1-methylethyl) pentanedioate	MSQKMFXJFBXZNQ-UHFFFAOYSA-N
690	3829596.10645	1.54983963142205	0.999936589008874	0.534291082854342	1-phenylethanamine	RQEUFEKYXDPUSK-UHFFFAOYSA-N
713	4069545.01538	0.877348693146768	0.895194750903691	0.903942800231452	1-bromo-3-chlorobenzene	JRGGUPZKKTVKOV-UHFFFAOYSA-N
460.34788	5244416.10766	0.333308794307161	0.841725042665133	1.49208390087984	chloroethane	HRYZWHHZPQKTII-UHFFFAOYSA-N
351.28123246	5784252.26161	0.343623395682962	0.854574376981671	1.79061291664789	difluoromethane	RWRIWBAIICGTTQ-UHFFFAOYSA-N
424.964	5567554.66705	0.166555978260833	0.857636978239133	2.1757455112415	chloroethene	BZHJMEDXRYGGRV-UHFFFAOYSA-N
516.422055185	3272816.2763	0.978017434935012	0.999976224499351	0.984012228810785	hexafluorobenzene	ZQBFAOFFOQMSGJ-UHFFFAOYSA-N
610	3117948.81199	0.385481394742682	0.866058936275544	2.31048249988548	1-propylpiperidine	VTDIWMPYBAVEDY-UHFFFAOYSA-N
613.1	6706930.23443	1.41000359276558	0.999600408075147	0.590107120401931	ethane-1,2-diamine	PIICEJLVQHRZGT-UHFFFAOYSA-N
460	4809271.92339	0.422857396096125	0.842650901572265	1.19165259837622	cyclobutane	PMPVIKIVABFJJI-UHFFFAOYSA-N
545	3129251.96232	1.3143730784236	0.985378429927796	0.610121459612337	(Z)-3-methyl-3-hexene	FHHSSXNRVNXTBG-SREVYHEPSA-N
680	2282732.21841	0.711888258682657	0.905392429603176	1.81238522295005	S*S*-(1-sec-butoxyethyl)benzene	QOQNKWLTXVLCIQ-QWRGUYRKSA-N
566	3552846.24365	0.863756746193975	0.851353378916219	0.815239582717932	1,cis-2-dimethylcyclopentane	RIRARCHMRDHZAR-KNVOCYPGSA-N
892	3707902.72546	0.699207440600474	0.887279909566335	1.54419026559064	1,5-diazaphenanthrene	OZKOMUDCMCEDTM-UHFFFAOYSA-N
828	6249355.91542	1.79809073799372	0.998427165210808	0.616866778488518	1,4-benzenediol	QIGBRXMKCJKVMJ-UHFFFAOYSA-N
665	4057154.33576	0.871528326234794	0.903878400190923	0.948397310605264	.gamma.-ethylpyridine	VJXRKZJMGVSXPX-UHFFFAOYSA-N
785	4818002.79302	0	0.275460383022127	0.660514475219773	3-fluoronitrobenzene	WMASLRCNNKMRFP-UHFFFAOYSA-N
753	5739210.28466	0.00000892888430633125	0.254088348704356	0.781377076711428	2,2-dinitro-2-fluoroethanol	DKSPPEUUPARRFY-UHFFFAOYSA-N
627	3254334.96658	0.382213827390065	0.785029574783139	2.20478676830944	diacetoxymethane	BPGDAMSIGCZZLK-UHFFFAOYSA-N
528.7	2925158.01772	0.492596635557807	0.923169955603386	1.67374041805007	5-methyl-1-hexene	JIUFYGIESXPUPL-UHFFFAOYSA-N
697.57068	4167780.32963	1.11730997995152	0.632588110146203	0.753189459034092	2-methylphenol	QWVGKYWNOKOFNN-UHFFFAOYSA-N
598.5	3403185.01607	1.17499791172631	0.998404540076693	0.706178106703534	3-methylbutanenitrile	QHDRKFYEGYYIIK-UHFFFAOYSA-N
656	1890301.68269	1.54008001414178	0.999618287353328	0.752778973046925	1-methylethyl octanoate	WCGIIHOFOFCKSM-UHFFFAOYSA-N
589	3874625.92552	1.30765260658933	0.999745185973839	0.523669167730195	1,1,1-trichloropropane	AVGQTJUPLKNPQP-UHFFFAOYSA-N
722.4	6421268.03893	0.332456120019291	0.866011458227722	2.31073175296196	dimethyl sulfoxide	IAZDPXIOMUYVGZ-UHFFFAOYSA-N
571.2	3450347.18084	0.413720133911442	0.8071816040087	1.51198263824891	1-chloropentane	SQCZQTSHSZLZIQ-UHFFFAOYSA-N
507.544638551	3027546.03964	0.623166885722628	0.831835883048979	1.13487540699625	hexane	VLKZOEOYAKHREP-UHFFFAOYSA-N
675	2387562.74143	0.820394052521344	0.86749721153863	1.23718824008853	1,4-diisopropylbenzene	SPPWGCYEYAMHDT-UHFFFAOYSA-N
398.26934	5579736.52459	0.492519818912656	0.850093562556861	0.967635813043738	cyclopropane	LVZWSLJZHVFIQJ-UHFFFAOYSA-N
540.078333299	2734049.36904	0.570752254842798	0.814692229379619	1.30156624720452	heptane	IMNFDUFMRHMDMM-UHFFFAOYSA-N
430.587636287	7611927.40506	1.33171774264008	0.999971416174621	0.563467377965742	methanamine	BAVYZALUXZFZLV-UHFFFAOYSA-N
542.8	2960083.88394	0.523132361846939	0.920565913665175	1.69769402346095	2-heptene, (E)-	OTTZHAVKAVGASB-HWKANZROSA-N
771	4355198.73775	1.24829202044118	0.999994933188595	0.696240421535386	6-hexanolactone	PAPBSGBWRJIAAV-UHFFFAOYSA-N
345.884582691	3768062.51241	0.244999901989496	0.849065209249365	2.12977831088723	1,1,1-trifluoroethane	UJPMYEOUBPIPHQ-UHFFFAOYSA-N
674	3740116.63144	0.769297675054134	0.92287343126098	1.67674404671229	1-bromo-1-phenylethane	CRRUGYDDEMGVDY-UHFFFAOYSA-N
664	3491840.76034	1.27338948142333	0.996616690192479	0.642932599434005	1-ethenyl-4-methylbenzene	JLBJTVDPSNHSKJ-UHFFFAOYSA-N
652	3115691.36019	1.17642688431476	0.990299649234058	0.673590738018491	.beta.-pinene	WTARULDDTDQWMU-UHFFFAOYSA-N
667.27918	3819393.8277	0.450761243015389	0.819889119410644	1.56297444826174	3,5-dimethylpyridine	HWWYDZCSSYKIAD-UHFFFAOYSA-N
574.8	2363864.16789	0.657900540857052	0.916992388856181	1.73142132958309	4-methyloctane	DOGIHOCMZJUJNR-UHFFFAOYSA-N
475.74	2232995.01176	0.173504819811724	0.807664084279283	3.35379675582567	1,1,1,2,3,3-hexafluoro-3-(2,2,2-trifluoroethoxy)propane	LMRGTZDDPWGCGL-UHFFFAOYSA-N
550	2883960.83092	0.205844008670318	0.828909865145206	2.92499031043931	1-(2-chloro-1,1,2-trifluoroethoxy)propane	VAQBXLDLDMFYQU-UHFFFAOYSA-N