Tc	Pc	c0	c1	c2	name	inchikey
504.069164203	3205325.96909	0.971295025885109	0.908926492622507	0.78324821988919	hex-1-ene	LIKMAJRDDDTEIG-UHFFFAOYSA-N
470	1970697.17427	0.634998696756006	0.767491564842979	1.33421087942747	nonafluoropentanoyl chloride	HRBNMYUNLLWPAX-UHFFFAOYSA-N
749	3040153.16219	0.168876089578911	0.81980617444042	3.11481527287996	1,3-dimethyl-3,4,5,6-tetrahydro-2(1H)-pyrimidinone	GUVUOGQBMYCBQP-UHFFFAOYSA-N
914	977657.847287	2.46101805601182	0.937439675637577	0.550618400712178	1,7-diphenyl-4-(3-phenylpropyl)-3-heptene	MRIWNISAXOBYEH-UHFFFAOYSA-N
373.249984705	8949543.79648	0.897091704332138	0.956503261654311	0.555633534598401	hydrogen sulfide	RWSOTUBLDIXVET-UHFFFAOYSA-N
861	2789964.21505	1.39056985977638	0.99995846130948	0.718134129209181	1,3-diphenyl-2-thiapropane	LUFPJJNWMYZRQE-UHFFFAOYSA-N
692	3803090.37454	1.14528839779125	0.999971695464228	0.841379383469296	2-bromoethyl 2-chloroethyl ether	HZPOUOYGTRLTSS-UHFFFAOYSA-N
545.670831797	2244503.02887	1.18764827109795	0.950789046748261	1.33737271375412	perfluoropentanoic acid	CXZGQIAOTKWCDB-UHFFFAOYSA-N
501	4908375.93076	0.362076434669834	0.892538312979702	1.65107569973292	1,3-cyclopentadiene	ZSWFCLXCOIISFI-UHFFFAOYSA-N
625.1	3306623.38045	0.63279754871866	0.782399694450327	1.22543825224615	1-nitrobutane	NALZTFARIYUCBY-UHFFFAOYSA-N
609	4258649.72711	1.58409285587247	0.464603944631991	0.400556657687384	N-methylpiperidine	PAMIQIKDUOTOBW-UHFFFAOYSA-N
596.1	3126595.92098	0.379905503630299	0.830577728524848	1.55931722189437	(1R,2R)-1,2-dimethylcyclohexane	KVZJLSYJROEPSQ-HTQZYQBOSA-N
640.9	3519994.19961	1.15144419545537	0.99992043781176	0.843326602647484	3-methoxypropanenitrile	OOWFYDWAMOKVSF-UHFFFAOYSA-N
723	4411872.72168	1.10262856379404	0.999995345882923	0.741704676071913	1-bromo-2-chlorobenzene	QBELEDRHMPMKHP-UHFFFAOYSA-N
570	5000164.2658	0.444794329025594	0.820239305913901	1.27382408863303	trichloroethene	XSTXAVWGXDQKEL-UHFFFAOYSA-N
614.5	2730337.16495	0.362965758393903	0.836520378279563	2.42236788875087	butyl 2-methyl-2-propenoate	SOGAXMICEFXMKE-UHFFFAOYSA-N
813	4661862.82603	1.41747823386727	0.974173649945567	0.506032779287683	1-bromo-3-iodobenzene	CTPUUDQIXKUAMO-UHFFFAOYSA-N
450	2980704.94844	1.1734758804451	0.805397866350877	0.774232957548486	2-(methoxy)-1,1,2,2-tetrafluoroethane	YQQHEHMVPLLOKE-UHFFFAOYSA-N
771	1527956.38811	0.942261487100474	0.891672600348665	1.99148393852831	3-methyl-5-(pentanoyloxy)phenyl pentanoate	QTQUQPRPHCMOMZ-UHFFFAOYSA-N
604.26	3849855.94425	0.330580568379352	0.832762224990118	1.64958001106729	cycloheptane	DMEGYFMYUHOHGS-UHFFFAOYSA-N
665.4	1966066.84209	0.357593407857864	0.826950191798402	2.96433261249723	octyl propanoate	CEQGYPPMTKWBIU-UHFFFAOYSA-N
498.208	3911849.52899	0.183947790640864	0.852373106369603	2.5116744356083	2-chloro-2-methylpropane	NBRKLOOSMBRFMH-UHFFFAOYSA-N
585	5368090.64138	0.365013547221562	0.844737342839201	2.46917257907596	1,2-propanediamine	AOHJOMMDDJHIJH-UHFFFAOYSA-N
824	3998078.60277	0.514761147246154	0.000915789938183535	0.571159442171765	1-butyl-2-methyl-1H-imidazole	WHLZPGRDRYCVRQ-UHFFFAOYSA-N
461.6	3757542.90891	0.40030313116581	0.826802372046428	1.52941898831822	1,2-dichloro-1,1,2-trifluoroethane	YMRMDGSNYHCUCL-UHFFFAOYSA-N
511	3679141.88956	0.418835031525351	0.980645690511023	1.10815314240402	3,3-dimethyl-1-butyne	PPWNCLVNXGCGAF-UHFFFAOYSA-N
557	3685819.13318	1.40202251600422	0.999999304032674	0.469644917355824	1,1-dimethylcyclopentane	QWHNJUXXYKPLQM-UHFFFAOYSA-N
567.5	2630576.19997	0.518617573532109	0.918859237372616	1.71355907881978	2-methyl-1-heptene	RCBGGJURENJHKV-UHFFFAOYSA-N
795	1013528.5634	1.2062442588967	0.946205362509924	1.38296454363361	(1-octylnonyl)cyclohexane	QQUZVPOZCFYGDY-UHFFFAOYSA-N
709.5	4017069.79094	0.211167318811433	0.836624889872137	2.77756658980309	acetophenone	KWOLFJPFCHCOCG-UHFFFAOYSA-N
400.054181589	5301658.69946	0.831218499074965	0.888072950086822	0.744607298593858	dimethyl ether	LCGLNKUTAGEVQW-UHFFFAOYSA-N
640.206975	3233711.78365	0.400125828117323	0.843756777254252	1.85105097803486	1-ethyl-4-methylbenzene	JRLPEMVDPFPYPJ-UHFFFAOYSA-N
678	5660538.94548	0.814772602680957	0.831232686325065	1.39086177449904	chloroethanoic acid	FOCAUTSVDIKZOP-UHFFFAOYSA-N
669	4042801.79134	1.13082268386528	0.95230282449503	0.730337436687782	1-ethenyl-2-methylbenzene	NVZWEEGUWXZOKI-UHFFFAOYSA-N
716.552542268	18783746.1524	1.18806473898716	0.899558896302452	0.82425023977448	2-azidoethanol	BSULWPSUVMOMAN-UHFFFAOYSA-N
817	846926.813605	1.69135437675773	0.986002541725745	1.07480961904524	2-cyclohexyleicosane	JKGLILLLSMITKV-UHFFFAOYSA-N
723	4268711.70812	0.894301273230317	0.972022329256476	1.16498436640959	(2-bromoethyl)benzene	WMPPDTMATNBGJN-UHFFFAOYSA-N
700	3137320.43525	0.420496338501108	0.858475864354559	2.4188626190084	methyl 4-methylbenzoate	QSSJZLPUHJDYKF-UHFFFAOYSA-N
564.13	1416272.30125	1.35252900489649	0.913462593001519	0.806748130020997	octamethyltrisiloxane	CXQXSVUQTKDNFP-UHFFFAOYSA-N
478.54	4176613.71535	0.127765483171891	0.839763517501187	2.72081677802772	2-methoxypropene	YOWQWFMSQCOSBA-UHFFFAOYSA-N
736	1772853.1856	2.34457851893983	0.692221590922311	0.647363366039572	1-methyl-3,5-bis(2-methylpropoxy)benzene	MVPLXYAJSPUOTN-UHFFFAOYSA-N
662	1832070.26084	0.958741150059387	0.957698830533147	1.27384857024269	5-butylnonane	YXSQPZMAIVSYDV-UHFFFAOYSA-N
317.454119467	5881021.28265	0.227004730734726	0.876989379701404	2.16440078151732	fluoromethane	NBVXSUQYWXRMNV-UHFFFAOYSA-N
628.6	2304340.97479	0.331746845770973	0.823466415226033	2.74000046244557	propyl hexanoate	HTUIWRWYYVBCFT-UHFFFAOYSA-N
471.170834428	4394497.67571	0.74447759898456	0.86218509168259	0.791574576186778	trichlorofluoromethane	CYRMSUTZVYGINF-UHFFFAOYSA-N
738	2371931.119	1.19345775356374	0.999841470997864	0.978699995475031	methyl 4-tert-butylbenzoate	UPIJOAFHOIWPLT-UHFFFAOYSA-N
490	3718177.47651	0.764653698992803	0.946068335445805	1.38398380729492	ethyl trifluoroacetate	STSCVKRWJPWALQ-UHFFFAOYSA-N
608.535502728	3168110.40766	0.262440610796548	0.825347038075132	2.99683687896681	2-ethoxyethyl ethanoate	SVONRAPFKPVNKG-UHFFFAOYSA-N
563.462056	2730925.09008	1.36990488183232	0.999998271062062	0.556668817687741	2,2,3-trimethylpentane	XTDQDBVBDLYELW-UHFFFAOYSA-N
537.3	4193052.28105	0.498679072462344	0.839643157703025	1.46586140282961	3-hexyne	DQQNMIPXXNPGCV-UHFFFAOYSA-N
521	3400578.02759	0.524965536080431	0.846175897915901	1.31771389382952	2,3-dimethyl-2-butene	WGLLSSPDPJPLOR-UHFFFAOYSA-N
607	1456968.58698	0.625865514021163	0.884289775703452	2.07704454693242	1,1,5-trichloro-1-(2-chloro-1,1,2,3,3,3-hexafluoropropoxy)-2,2,3,3,4,4,5,5-octafluoropentane	YMOIDLRGYJPYCQ-UHFFFAOYSA-N
747	3446053.81846	0.840602056672449	0.872615712405613	1.07868758726969	1-chloro-3-nitrobenzene	KMAQZIILEGKYQZ-UHFFFAOYSA-N
794	2388076.51958	0.43963468002599	0.81863528580078	2.31068932380757	1,2,3,4,6,7,8,9-octahydrophenazine	JYYRTWNCBVRKMN-UHFFFAOYSA-N
743	2386406.00916	1.34346986313091	0.998793524481051	0.860480041698352	2-bromo-1-isobutoxy-4-methylbenzene	YVHDBWCXOLXDDD-UHFFFAOYSA-N
638	5062330.14627	0.537013561325542	0.87255930270194	1.81333679594157	3-methoxythiophene	RFSKGCVUDQRZSD-UHFFFAOYSA-N
469.866686	7234636.87256	0.805523306401177	0.885704564275487	0.686289739509512	methanethiol	LSDPWZHWYPCBBB-UHFFFAOYSA-N
897	3663829.13793	0.554030044999091	0.821467017833637	1.41200334294045	dibenzothiophene	IYYZUPMFVPLQIF-UHFFFAOYSA-N
813	905015.471449	1.11660197245363	0.923384814002011	1.67142444996564	1-cyclopentyl-4-(3-cyclopentylpropyl)dodecane	ZMXUNXRABSSJDU-UHFFFAOYSA-N
833	1540347.29918	1.51104317532271	0.999235812113018	0.846893003501528	7-butyl-1-hexylnaphthalene	LPEFBGSLSJQKAH-UHFFFAOYSA-N
652.134146341	2483243.33645	0.3703561166339	0.81444997307187	2.2766027240333	2-nonanone	VKCYHJWLYTUGCC-UHFFFAOYSA-N
809	3536603.15042	1.34217191787281	0.999986803702398	0.682304996921014	2-phenylpyridine	VQGHOUODWALEFC-UHFFFAOYSA-N
591.8	3914682.62823	1.09315475070145	0.999741903636414	0.721821842751754	1-fluoro-3-methylbenzene	BTQZKHUEUDPRST-UHFFFAOYSA-N
437.81368	4394097.28484	1.54691444419259	0.953351136925341	0.437559269080825	ethyl methyl ether	XOBKSJJDNFUZPF-UHFFFAOYSA-N
510.2	5041941.25759	1.69674177108578	0.875870959990453	0.435709966130336	1-chloro-2-fluoroethane	VEZJSKSPVQQGIS-UHFFFAOYSA-N
397.1282	5820376.86452	0.214426037255008	0.838912628698635	2.38199967900085	ethanedinitrile	JMANVNJQNLATNU-UHFFFAOYSA-N
641.4	2359483.52847	1.09819292439808	0.903110207217047	0.966516577696019	5-nonanone	WSGCRAOTEDLMFQ-UHFFFAOYSA-N
617	2315613.42325	0.857599745040524	0.809114586529868	1.05554121734795	butyl 2,2-dimethylpropanoate	FCDMDSDHBVPGGE-UHFFFAOYSA-N
589	4829449.8393	0.7400617306207	0.999316304293013	0.926695549700265	bicyclo[2.2.1]hept-2-ene	JFNLZVQOOSMTJK-UHFFFAOYSA-N
421.83374	2039219.44771	1.52642027691825	0.999500107217041	0.602097806188399	perfluoropentane	NJCBUSHGCBERSK-UHFFFAOYSA-N
776	3846417.90855	1.34397216450749	0.965033530897462	0.692060272492447	3-methylisoquinoline	FVVXWRGARUACNW-UHFFFAOYSA-N
688	3255552.54027	2.20074749917471	0.765047079380197	0.446891166674654	1-(2-aminoethyl)-4-methyl-piperazine	GOWUDHPKGOIDIX-UHFFFAOYSA-N
538.6	2960062.52756	0.528046405080859	0.920010078010955	1.70269637643951	3-heptene, (E)-	WZHKDGJSXCTSCK-FNORWQNLSA-N
595	2169801.99808	1.05440122952072	0.884830725959502	0.928144426126842	ethyl 1,1,3,3-tetramethylbutyl ether	JGPJRBWLBUGAQN-UHFFFAOYSA-N
700	3615160.38083	1.35551736145143	0.983478964665767	0.567504816232637	1-chloro-4-vinylbenzene	KTZVZZJJVJQZHV-UHFFFAOYSA-N
625	3784908.27038	0.543770717589107	0.919518741152049	1.70764976758959	(E)-2-hexenal	MBDOYVRWFFCFHM-SNAWJCMRSA-N
540.26	3183697.98975	0.341920873160787	0.840233842827819	2.30835770326652	methyl methacrylate	VVQNEPGJFQJSBK-UHFFFAOYSA-N
828	748172.755046	1.82700537407701	0.925309938737458	0.942304438194111	1,4-dimethyl-5-(1-decyl-1-undecenyl)benzene	HSENBQKKQBBBPT-UHFFFAOYSA-N
592	5671330.65337	1.04458682055189	0.999588299127578	0.699547754796384	cyclobutanone	SHQSVMDWKBRBGB-UHFFFAOYSA-N
556	6286846.51761	0.748559030820649	0.850495079293049	0.946831644636905	1,3-dioxolane	WNXJIVFYUVYPPR-UHFFFAOYSA-N
536.347540984	3191670.14649	0.11484195968237	0.828350246087007	2.93551551803133	2-methoxy-2-methylbutane	HVZJRWJGKQPSFL-UHFFFAOYSA-N
718	2395843.61105	1.50079730264353	0.949325044548472	0.615110399532171	benzyl tert-amyl ether	WNNPKRGOYFBQEZ-UHFFFAOYSA-N
824	887971.362871	0.999858714207521	0.903346774699701	1.86608118127239	1,7-dicyclopentyl-4-(3-cyclopentylpropyl)heptane	GGMFQOVCHUDPGX-UHFFFAOYSA-N
460	3115463.36265	1.05990784735457	0.416448480432259	1.07359189087159	1,1,1,3,3,3-hexafluoro-2-propanol	BYEAHWXPCBROCE-UHFFFAOYSA-N
632	3098525.22767	1.09550743985409	0.989239429439886	0.958929016849133	2,2-diisopropyl-1,3-dioxolane	BIYJJEWTEPSHGZ-UHFFFAOYSA-N
629	4417400.89575	1.20217395901718	0.948910870069635	0.70999979182862	4-vinyl-1,3-dioxane	VPCZGAGWRHOWMC-UHFFFAOYSA-N
674	2315993.45267	1.98016690106792	0.832049262832985	0.641409012291853	(S)-3,7-dimethyl-6-octen-1-ol	QMVPMAAFGQKVCJ-JTQLQIEISA-N
570.92	3656823.54791	0.168869016463753	0.837953981430179	2.73713003173509	3,3-dimethyl-2-butanone	PJGSXYOJTGTZAV-UHFFFAOYSA-N
574.611	2485003.62828	0.526602165587938	0.840665494562897	1.37012167521587	2,2,4,4-tetramethylpentane	GUMULFRCHLJNDY-UHFFFAOYSA-N
339.20240537	3623182.48366	1.08453069010015	0.998597624780731	0.741264385601965	pentafluoroethane	GTLACDSXYULKMZ-UHFFFAOYSA-N
650.28258	3050963.38722	0.343581220764197	0.837378483671522	2.07456703500252	(2-methylpropyl)benzene	KXUHSQYYJYAXGZ-UHFFFAOYSA-N
705	3859940.66548	1.20388069961515	0.987216161491181	0.869103933184949	1-amino-2,6-dimethylbenzene	UFFBMTHBGFGIHF-UHFFFAOYSA-N
696	2784273.01072	0.205374177338602	0.821883129098942	3.06978522426351	1-methylethyl benzoate	FEXQDZTYJVXMOS-UHFFFAOYSA-N
826	1851500.86345	0.849992453299541	0.891606681938372	1.99251104160047	2,6-dimethyl-3-octylnaphthalene	UZHLPUVYQFPPMF-UHFFFAOYSA-N
639	4734095.70927	0.653632550330571	0.902943215498931	1.54637403369743	1,4-dioxaspiro[4.4]nonane	IJDXSTIWUARVEK-UHFFFAOYSA-N
631	3836937.04425	0.224189696865904	0.824141083911999	3.02153087535453	1,3-pentanediamine	WTSXICLFTPPDTL-UHFFFAOYSA-N
599	4406091.79509	1.23342318334269	0.999903996327896	0.853630733512635	2-ethoxyethan-1-ol	ZNQVEEAIQZEUHB-UHFFFAOYSA-N
579.8	4113151.8471	1.37646586766254	0.995962519100343	0.703730972089485	1-methoxy-2-propanol	ARXJGSRGQADJSQ-UHFFFAOYSA-N
652	2059738.8909	0.985079087089734	0.927348027454352	1.61366314178795	(E)-2,2,4,6,6-pentamethyl-3-heptene	NBUMCEJRJRRLCA-CSKARUKUSA-N
718	3129867.20906	0.659208027088021	0.81339337506665	1.11689588872546	spiro[5.5]undecane	NECLQTPQJZSWOE-UHFFFAOYSA-N
851	2803231.08683	1.06201156871242	0.555164151567215	0.76244405935684	2-methyl-1-octyl-1H-imidazole	OWOSSTCHCATHMM-UHFFFAOYSA-N
566.372638	2708588.89961	0.379291524550677	0.814012260115199	1.63578982738135	2,3,4-trimethylpentane	RLPGDEORIPLBNF-UHFFFAOYSA-N
695	2761838.83588	1.33769672481811	0.889238868021224	0.674240795083023	2,4,6-trimethylstyrene	PDELBHCVXBSVPJ-UHFFFAOYSA-N
704	2578406.92671	1.25413192189877	0.885510969569492	0.6989437294178	ether, benzyl tert-butyl	TZGIRWVSWPFWBP-UHFFFAOYSA-N
606.9	3267951.19998	0.523012662401327	0.846087752189353	1.32691608214739	ethylcyclohexane	IIEWJVIFRVWJOD-UHFFFAOYSA-N
561	4241827.60528	1.02582406014097	0.998428692825967	1.00626151209782	2-dimethylamino-1-ethylamine	DILRJUIACXKSQE-UHFFFAOYSA-N
716	2931999.87003	2.16748344888052	0.92194678389559	0.470155531020243	2-methyl-4-(1-methylethyl)phenol	WYXXLXHHWYNKJF-UHFFFAOYSA-N
646.1	4208519.79292	0.358072225902444	0.82059718998043	1.8351711428365	anisole	RDOXTESZEPMUJZ-UHFFFAOYSA-N
611	4228815.24773	1.06843187711956	0.865815382430343	1.29676235022093	2-amino-2-methylpropan-1-ol	CBTVGIZVANVGBH-UHFFFAOYSA-N
730	3794932.99029	1.22159953645734	0.995761866147206	0.704481954378766	3,4-dihydro-2H-1-benzopyran	VZWXIQHBIQLMPN-UHFFFAOYSA-N
715.56428	3678420.64994	1.46371682862765	0.833487029296866	0.717603893356539	3,5-dimethylphenol	TUAMRELNJMMDMT-UHFFFAOYSA-N
848	2225403.35174	1.27405110226593	0.99990568304104	0.880765258614882	9-methyl-9H-carbazole	SDFLTYHTFPTIGX-UHFFFAOYSA-N
586.1	2890551.24499	0.643241741708541	0.923193930324026	1.67390177243969	2-methylbutyl ethanoate	XHIUFYZDQBSEMF-UHFFFAOYSA-N
509	3243964.17024	1.0578414249787	0.897618570520902	0.702347332951854	N,N-diethylmethylamine	GNVRJGIVDSQCOP-UHFFFAOYSA-N
565.3	2861043.57347	0.310735019637763	0.841404929501841	2.69244112518443	methyl 3,3-dimethylbutanoate	DXBOTVWRXLQVMG-UHFFFAOYSA-N
594.136	4654125.82604	0.825483828588103	0.823013164621845	0.815726905609609	piperidine	NQRYJNQNLNOLGT-UHFFFAOYSA-N
554.421	3494214.90694	0.367632248594648	0.794935410164588	1.79784897635953	methyl butanoate	UUIQMZJEGPQKFD-UHFFFAOYSA-N
438.75	3572609.71655	0.464667224598493	0.827231124889368	1.46154865981149	(E)-1-chloro-3,3,3-trifluoroprop-1-ene	LDTMPQQAWUMPKS-OWOJBTEDSA-N
511.740584589	4515053.81704	0.938568789722123	0.909443521180089	0.662595698343614	cyclopentane	RGSFGYAAUTVSQA-UHFFFAOYSA-N
813	945374.55333	1.30915496995918	0.950289165234298	1.3409080147847	(3-octylundecyl)benzene	YFDREPVYVBGJDD-UHFFFAOYSA-N
596	3596944.65678	2.60979557784002	0.856043116290339	0.391861982949469	1-hexen-3-ol	BVOSSZSHBZQJOI-UHFFFAOYSA-N
647.108143	22071894.4391	0.532353875057173	0.878018034708044	1.49138921057968	water	XLYOFNOQVPJJNP-UHFFFAOYSA-N
568.787908674	2486767.247	0.351757574357052	0.824878277516877	2.0549535014352	octane	TVMXDCGIABBOFY-UHFFFAOYSA-N
740	1981577.32045	0.768447648770898	0.864852727733394	2.32726657334153	n-decyl levulinate	HQUKURPUHDNRCS-UHFFFAOYSA-N
591.88587	3743801.1675	0.146930382429529	0.840958965997062	2.70043217181151	stannic chloride	HPGGPRDJHPYFRM-UHFFFAOYSA-J
778	2994124.52736	0.510286708674382	0.825679569383452	1.67393296204451	2,3-dimethylnaphthalene	WWGUMAYGTYQSGA-UHFFFAOYSA-N
680	2924413.70788	0.259491139099964	0.84253837924253	2.6307106567725	2,5,6-trimethyl-2-cyclohexen-1-one	QAQCUBLNHBKTRM-UHFFFAOYSA-N
564.2	4190916.80503	0.231205930062545	0.84784870104505	2.58402367799793	1-heptyne	YVXHZKKCZYLQOP-UHFFFAOYSA-N
379.52528	4092246.80923	0.496188455759095	0.830326475165009	1.22266469630473	1-chloro-1,2,2-trifluroethene	UUAGAQFQZIEFAH-UHFFFAOYSA-N
671	5319313.02412	1.19119780141996	0.737928710931011	0.808709608381156	2-(ethylamino)ethanol	MIJDSYMOBYNHOT-UHFFFAOYSA-N
599	3897330.97843	1.2113450850419	0.914742641250868	0.731354604613609	1,3-dioxolane, 2-propyl-	JSDUOUVZQRZOOY-UHFFFAOYSA-N
520.31	3480079.66576	1.16260325300485	0.999862905804106	0.640174285517832	dichlorodimethylsilane	LIKFHECYJZWXFJ-UHFFFAOYSA-N
601	1456777.10076	2.67252496105889	0.972611160327937	0.595310675765047	perfluorononanoic acid	UZUFPBIDKMEQEQ-UHFFFAOYSA-N
663	2866182.62369	0.363015689857772	0.864767401218642	2.31805330711691	1-ethyl-2,4-dimethylbenzene	MEMBJMDZWKVOTB-UHFFFAOYSA-N
809	2284727.44033	0.737095005292374	0.904342626872501	1.8558897796487	1-p-propylphenyl-1-p-tolylethane	CTGGQBHUPFOREM-UHFFFAOYSA-N
890	3428384.29492	0.259073358393161	0.761858957594549	1.99610354933882	1-butyl-1H-benzimidazole	SHPPDRZENGVOOR-UHFFFAOYSA-N
657	3234916.00269	1.11457750910239	0.999883053228226	0.890341157686259	(2-chloroethyl) (2-chloroisopropyl) ether	UGFYPYARIASFIY-UHFFFAOYSA-N
591	3231815.47987	0.595345528385434	0.861107856766012	1.92124949167209	ethyl 3-methyl-2-butenoate	UTXVCHVLDOLVPC-UHFFFAOYSA-N
814	839917.392047	1.18087728624573	0.927734737429987	1.6075323292302	(1-decylundecyl)cyclopentane	LEQBWYDHNLNMED-UHFFFAOYSA-N
430.660574075	7815548.79181	0.388251213178732	0.817619477876392	1.44963585223865	sulfur dioxide	RAHZWNYVWXNFOC-UHFFFAOYSA-N
387.762917115	2644277.05346	1.72592872484572	0.975004844472513	0.534569401391438	1,1,2,2-tetrafluoro-1-(trifluoromethoxy)ethane	MEVYDFZGEHEVSM-UHFFFAOYSA-N
716	2620286.59722	1.43212142319411	0.942060064169913	0.742108262594284	tert-butyl phenyl carbonate	UXWVQHXKKOGTSY-UHFFFAOYSA-N
886	1583873.758	1.13680830361086	0.961721323282286	1.23029703782514	benzoylferrocene	PWUMGRPMAGSFJU-UHFFFAOYSA-N
630	3583779.4617	0.465358625253336	0.630022203269405	1.03291637831059	1,3-dioxolane, 2-methyl-2-propyl-	NXGWCOIWOMWSDT-UHFFFAOYSA-N
630.1	1902715.11643	1.03896205334042	0.879319616407036	1.11552629003091	methyl octanoate	JGHZJRVDZXSNKQ-UHFFFAOYSA-N
838	932462.397211	1.51726049371425	0.81861657358227	1.10576090108029	1,1-dicyclohexyltetradecane	COJYJGCWESKHMR-UHFFFAOYSA-N
718	1352448.80627	0.607874937723319	0.79905985693216	2.27076700386883	empenthrin	YUGWDVYLFSETPE-JLHYYAGUSA-N
709.8	4393831.48953	1.64689659650431	0.994342380413796	0.576475272823284	di(2-aminoethyl)amine	RPNUMPOLZDHAAY-UHFFFAOYSA-N
801	760164.412735	1.76661744295501	0.999855510661787	0.980299669193546	5-butyldocosane	CSRNPDQIQWQJCM-UHFFFAOYSA-N
739	4448230.57204	0.961507737832912	0.999905377282104	0.928023443612272	4-iodotoluene	UDHAWRUAECEBHC-UHFFFAOYSA-N
743	3706833.04997	0.437169720880359	0.837975527595525	2.01113781742775	2(3H)-furanone, dihydro-5-propyl-	VLSVVMPLPMNWBH-UHFFFAOYSA-N
708	2229060.39299	0.420083624755302	0.794265623999849	1.9589542477748	1,4-bis(1,1-dimethylethyl)benzene	OOWNNCMFKFBNOF-UHFFFAOYSA-N
594.147995516	2291680.69317	0.536673462925039	0.80417309186871	1.57482212349073	nonane	BKIMMITUMNQMOS-UHFFFAOYSA-N
605.1	3051019.92708	1.58524345867276	0.922306357473111	0.634499411737885	1-propoxy-2-propanol	FENFUOGYJVOCRY-UHFFFAOYSA-N
783	1421721.90735	1.74818827850441	0.550978017897256	0.752972799609561	3-[(2,2-dimethylpropanoyl)oxy]-5-methylphenyl 2,2-dimethylpropanoate	XFVAYGNQTNLVLU-UHFFFAOYSA-N
408	3605551.74784	2.17512211172298	0.917210881927664	0.310665514600036	difluoromethoxymethane	CGZAMBNIGLUBRY-UHFFFAOYSA-N
558	4604091.56009	1.22488027869354	0.972106406914754	0.53520489368788	1,3-cyclohexadiene	MGNZXYYWBUKAII-UHFFFAOYSA-N
725	1366870.21344	0.422575649331127	0.819629932577977	3.11887234377306	isobutyl dodecanoate	SZFOMJOELAAHAF-UHFFFAOYSA-N
535.214816	2797991.94728	0.550002953125981	0.817739877465812	1.28138750817018	3-methylhexane	VLJXXKKOSFGPHI-UHFFFAOYSA-N