Tc	Pc	c0	c1	c2	name	inchikey
548.4	4203546.06502	0.254630650306362	0.826462145913353	2.01881193989667	1,3-difluorobenzene	UEMGWPRHOOEKTA-UHFFFAOYSA-N
883	2428576.96091	0.646068403542386	0.826512501637269	1.46399868651574	4,5,9,10-tetrahydropyrene	XDFUNRTWHPWCKO-UHFFFAOYSA-N
613.7	3416382.05663	0.782960292896239	0.870726201510296	1.07907302266112	1-nitro-2-methylpropane	XFXRMDNWSGXSNJ-UHFFFAOYSA-N
608	2613405.00434	0.220627573091609	0.828146420245308	2.68055469476471	trichloromethyl 2,2-dichloro-1,1,2-trifluoroethyl ether	RYVYLYKKFUWOGA-UHFFFAOYSA-N
760	3152414.72144	0.462546225109315	0.80640503625562	1.91967045059454	2-propenoic acid, 3-phenyl-, methyl ester, (E)-	CCRCUPLGCSFEDV-BQYQJAHWSA-N
564	2167814.75272	0.228338456547258	0.823446069574097	2.77339578498577	trichloromethyl 2-chloro-1,1,2,3,3,3-hexafluoropropyl ether	CGUKJIYDMJSQOD-UHFFFAOYSA-N
547	3152481.30878	1.18467363294605	0.913994549111919	0.671400612334012	1,1,1-trichloro-2,3,3-trifluoropropane	FNQVSKPUMAMGTM-UHFFFAOYSA-N
758	3642809.37721	0.442675472366244	0.817560782285287	1.60371525981356	1-thiaindan	YJUFGFXVASPYFQ-UHFFFAOYSA-N
560.6	2312522.24911	0.291264969071885	0.814122013156926	2.24510631056001	diisobutyl ether	SZNYYWIUQFZLLT-UHFFFAOYSA-N
607	1686350.96552	0.295604629183834	0.809951423623696	2.55453652154641	propane, 1,1,3-trichloro-1-(2,2-dichloro-1,1,2-trifluoroethoxy)-2,2,3,3-tetrafluoro-	CIARXPIAQOCSCO-UHFFFAOYSA-N
617	3439401.36935	0.184221076781104	0.836848246001986	2.77390860148434	1,1-dichloropentane	PGEVTVXEERFABN-UHFFFAOYSA-N
526	3781723.96731	0.364682672672522	0.811714394784316	1.57381278276	1,2,2-trichloro-1,1-difluoroethane	FQAMAOOEZDRHHB-UHFFFAOYSA-N
592.610735	2602045.06079	0.358656673325049	0.818718840617018	1.72981375108779	2,2,3,4-tetramethylpentane	VZFMYOCAEQDWDY-UHFFFAOYSA-N
564	1109081.18758	0.353521535978999	0.806000539557827	2.7046768977973	perfluoro(1-methyl-4-tert-butyl)cyclohexane	DSHQRENFDMQWER-UHFFFAOYSA-N
642.1	2615499.26104	0.252087983415406	0.821829500753647	2.32376321667219	2-methylpropylcyclohexane	FFROMNOQCNVNIH-UHFFFAOYSA-N
691.9474	1530927.74486	0.322827999352749	0.809038927239877	2.52852414877764	2,2,4,4,6,8,8-heptamethylnonane	VCLJODPNBNEBKW-UHFFFAOYSA-N
601	3138357.12103	0.393014719240304	0.816365570863943	1.68015204537531	2-(ethylthio)butane	JFNGZXUPUVUYST-UHFFFAOYSA-N
507	2698636.81126	0.37034914418164	0.813563225911759	1.84120429086906	ethane, 1,1-dichloro-2-(chlorodifluoromethoxy)-1,2,2-trifluoro-	LWQARWCIQAGKRZ-UHFFFAOYSA-N
707	1505477.06417	0.266954307758415	0.81195853067443	3.29555881169144	1,1-dichloroundecane	RFXWQJUJSLODOT-UHFFFAOYSA-N
696	2228422.76325	0.273082221804617	0.812139546019743	2.74005265312275	1,1-dichlorononane	FBTKIMWGAQACHU-UHFFFAOYSA-N
591.1	3573302.0401	0.201401454668081	0.832329618897074	2.40292203759922	3-methyl-1-butanethiol	GIJGXNFNUUFEGH-UHFFFAOYSA-N
597.7	2999845.22503	0.275821234167707	0.818714049500748	2.14400860178741	1-(ethylthio)-2-methylpropane	OIRKGXWQBSPXLQ-UHFFFAOYSA-N
635	3897688.76014	0.176299019810173	0.845438635405548	2.62387876824754	cis-2,5-dimethyltetrahydrothiophene	IBKCTZVPGMUZGZ-OLQVQODUSA-N
598.6	3153757.28551	0.259556630569109	0.821748490294736	2.19910830498225	1-(isopropylthio)propane	BDFDQOJJDDORSR-UHFFFAOYSA-N
523.78	1356006.19008	0.515525419295945	0.774639218985598	1.98048732215756	1,1,2,2,3,3,3-heptafluoro-N,N-bis(heptafluoropropyl)-1-propanamine	JAJLKEVKNDUJBG-UHFFFAOYSA-N
634	3679334.37691	0.991396523868975	0.906478951866984	0.728016830786411	tetrahydro-2,5-dimethylthiophene	IBKCTZVPGMUZGZ-UHFFFAOYSA-N
739	2580086.88476	0.228054660332434	0.829322161401297	2.91665581397012	octane, 1,2-dibromo-	BJJLJKYBNCPTQS-UHFFFAOYSA-N
657	4002795.23567	0.202143131542225	0.833027579368587	2.3547875085696	cyclopentyl-1-thiaethane	OTQVGYMGQKHLMY-UHFFFAOYSA-N
756	3347807.84281	0.400245703834695	0.806762741795586	2.02679736443987	2-methyl-3-phenyl-2-propenal	VLUMOWNVWOXZAU-UHFFFAOYSA-N
737	3296108.88472	0.232508674265483	0.820910156128297	3.09090259549084	(phenoxymethyl)oxirane	FQYUMYWMJTYZTK-UHFFFAOYSA-N
451.43	2181092.57957	0.199583121224863	0.811868796114984	2.76152409067028	perfluoromethylcyclopentane	BCNXQFASJTYKDJ-UHFFFAOYSA-N
665	3923866.27619	1.16011003281491	0.994971957492184	0.609433357799648	2H-thiopyran, tetrahydro-3-methyl-	WTPRCAYZVQKROM-UHFFFAOYSA-N
743	4146862.41883	0.222170605712104	0.832046452825228	2.35090176607665	1-propene, 1,1,2,3,3,3-hexachloro-	VFDYKPARTDCDCU-UHFFFAOYSA-N
787	3791728.82823	0.477365008091274	0.825046319561979	1.46554049961801	bicyclo[5.3.0]deca-2,4,6,8,10-pentaene	CUFNKYGDVFVPHO-UHFFFAOYSA-N
527	2499885.81764	0.677293346271173	0.800993840442792	1.98430076760908	butanoic acid, heptafluoro-	YPJUNDFVDDCYIH-UHFFFAOYSA-N
864	1996794.36683	0.660533050199309	0.812562354337737	1.88674148972669	dimethyl 2,6-naphthalenedicarboxylate	GYUVMLBYMPKZAZ-UHFFFAOYSA-N
661	2726154.69212	0.202032141641687	0.827737443572796	2.94834669772964	1,1-dichloroheptane	MEMYUUBNXYUWRG-UHFFFAOYSA-N
776	4024840.05569	0.695934909884561	0.905064368692194	1.78915033538267	methyl p-iodobenzoate	DYUWQWMXZHDZOR-UHFFFAOYSA-N
738	4078046.93242	0.449565035518008	0.819094588226222	1.87332078601332	1-methyl-1-phenylhydrazine	MWOODERJGVWYJE-UHFFFAOYSA-N
499	1533775.76575	0.223435308651056	0.818821997525229	3.13660025954537	cyclohexane, undecafluoro(pentafluoroethyl)-	SEEJHICDPXGSRQ-UHFFFAOYSA-N
646	1633062.30796	0.387852037205503	0.806982199052569	2.07210127321299	ethenetetramine, octamethyl-	CBXRMKZFYQISIV-UHFFFAOYSA-N
600.8	3448664.41508	0.170339828069701	0.843259066927716	2.66070708472918	2-methyl-2-pentanethiol	ISUXQQTXICTKOV-UHFFFAOYSA-N
645	3846932.10013	0.174929660441617	0.841018689373967	2.69841276109738	2-(1-methylethyl)thiophene	LOXBELRNKUFSRD-UHFFFAOYSA-N
694	3375697.51414	0.279481572182147	0.821707742760238	2.11909965601527	2,3-dihydro-1,1-dimethyl-1H-indene	UTTMVTDJCFSOFF-UHFFFAOYSA-N
528	3872868.68187	0.265012368847286	0.831097583266167	2.03974325281948	1,1,2-trichloro-1,2-difluoroethane	BQNSLJQRJAJITR-UHFFFAOYSA-N
637	5670821.43871	0.211285332389265	0.848806881773238	2.56844240326262	4-methylthiazole	QMHIMXFNBOYPND-UHFFFAOYSA-N
671	2779468.68774	0.254638863917961	0.823471962497538	2.53664266480269	1,2-dichloroheptane	WBCSJABQCRFUCP-UHFFFAOYSA-N
661	4137523.85589	0.166866815007979	0.849624108872577	2.55473146292032	2-methylthiacyclohexane	VLBGYQISAJHVAD-UHFFFAOYSA-N
486	1343605.50934	0.284375378682693	0.808671804217894	3.06001175962727	bis(nonafluorobutyl) ether	LOJJTTDNNWYSGX-UHFFFAOYSA-N
634	5490819.49299	0.918168115588889	0.907326012115155	0.807211978522358	2-methylthiazole	VZWOXDYRBDIHMA-UHFFFAOYSA-N
572	5778056.46609	0.270345729071103	0.819762145961433	2.03350539566088	2-methoxyethylamine	ASUDFOJKTJLAIK-UHFFFAOYSA-N
425.01	4014289.22892	0.791192032153804	0.884238322446014	0.976454404244769	1-chloro-2,2,2-trifluoroethane	CYXIKYKBLDZZNW-UHFFFAOYSA-N
521	1426957.65588	0.373496720700134	0.804567463688499	2.42080759148216	perfluoro(propylcyclohexane)	ITPKQVFBLQIXLT-UHFFFAOYSA-N
640	3043452.19244	0.193785424269152	0.832439584936151	2.85615649654802	1,1-dichlorohexane	RQXXCWHCUOJQGR-UHFFFAOYSA-N
642.4	2019636.07572	0.28244317964981	0.810177770769332	2.83835338603205	1-hexanol, 2-ethyl-, acetate	WOYWLLHHWAMFCB-UHFFFAOYSA-N
699	4558176.0366	0.302856497760385	0.816211928542347	2.0003080537865	benzoxazole	BCMCBBGGLRIHSE-UHFFFAOYSA-N
619	4647274.49807	0.810103187777431	0.89028051244034	0.978404718507851	2,4-hexadiyne	PCTCNWZFDASPLA-UHFFFAOYSA-N
507	2580083.85399	0.612867930923231	0.940403242957721	1.4454286257046	(R*,R*)-2,3-dichloro-1,1,1,4,4,4-hexafluorobutane	DRNMSWBRUAIIJO-LWMBPPNESA-N
643	2746258.06266	0.743955163841149	0.851942048074366	1.05567815757065	(-)-trans-pinane	XOKSLPVRUOBDEW-CIUDSAMLSA-N
723	3295197.82869	1.19143905088459	0.999999967132352	0.792059669868489	benzonitrile, p-chloro-	GJNGXPDXRVXSEH-UHFFFAOYSA-N
452.74484	7159272.99943	0.338887466254431	0.831700135955679	1.907772636381	chlorine trifluoride	JOHWNGGYGAVMGU-UHFFFAOYSA-N
655	2726390.17384	0.725032497527323	0.8489956371883	1.26870701902778	2-methylcyclohexyl acetate	AKIIJALHGMKJEJ-UHFFFAOYSA-N
708	3150062.73916	0.198269450926548	0.836739084648333	2.77575636204186	1,2-dibromohexane	NUUUANNAZVEWHM-UHFFFAOYSA-N
644	2064459.16382	0.257820318637148	0.814383681106803	2.79435042808108	pivalic anhydride	PGZVFRAEAAXREB-UHFFFAOYSA-N
541	3018266.33009	0.45480462674293	0.820578812122207	1.50522664083682	(E)-3-methyl-3-hexene	FHHSSXNRVNXTBG-VOTSOKGWSA-N
824	1896496.72198	0.493444938353873	0.785191699045866	1.77916743904284	2,2-di-p-tolylbutane	YLYGJDUBXATBCZ-UHFFFAOYSA-N
803	2847862.426	0.318479228478925	0.815570730981537	2.18049349002033	dicyclohexyl sulfide	FTAORUVBXKFVDA-UHFFFAOYSA-N
510	1158869.52746	0.261358840315078	0.810881519734796	3.32185816769156	perfluoro-1-decene	IMVVEWPCRIJQCA-UHFFFAOYSA-N
572	3733172.41196	0.980507488284996	0.891259180704695	0.877072088985145	propyl chloroformate	QQKDTTWZXHEGAQ-UHFFFAOYSA-N
679	2445468.33609	0.214300605407234	0.823937776166118	3.02628896210257	1,1-dichlorooctane	OQYNFBPKTVQOKO-UHFFFAOYSA-N
530.9	3929372.47275	0.213724092601633	0.848508616424933	2.57320073190741	1,3,5-trifluorobenzene	JXUKFFRPLNTYIV-UHFFFAOYSA-N
786	4115791.67336	0.512399870419155	0.786510735654349	1.41168769576989	1,2,3,4-tetrahydroquinoline	LBUJPTNKIBCYBY-UHFFFAOYSA-N
831	4457311.46701	0.340927677022914	0.850949849878962	2.53407198156154	.gamma.,.gamma.'-bipyridyl	MWVTWFVJZLCBMC-UHFFFAOYSA-N
460	3327511.00792	0.177486412331719	0.831937288618132	2.86539395714991	1,1,2,2,3,3,4,4,5-nonafluorocyclopentane	SOJZMJXWEOBDIC-UHFFFAOYSA-N
540.5	3121894.43378	0.306323968393541	0.815163635106616	2.00290760070098	1-(ethenyloxy)butane	UZKWTJUDCOPSNM-UHFFFAOYSA-N
735	3951622.25295	0.3312311734312	0.814466393253071	1.92355658111697	1H-2-benzopyran, 3,4-dihydro-	HEBMCVBCEDMUOF-UHFFFAOYSA-N
503	1831871.7485	0.273282204308672	0.813016728665216	2.66588002379478	1,1,1,2,2,3,3,4,4-nonafluoro-4-propoxybutane	TVOMDPDLBZJPTG-UHFFFAOYSA-N
537	1256288.84494	0.405733398743568	0.803435392106537	2.40965601333103	perfluoro(2-methylpropyl)cyclohexane	KOIDEQKLBFUNQU-UHFFFAOYSA-N
484	1911392.50053	0.572145491842477	0.814003493105186	1.74832755926916	1,1,1,2,2,3,3-heptafluoro-3-(2,2,3,3-tetrafluoropropoxy)propane	SOERTGBQDRIVMU-UHFFFAOYSA-N
597	3598521.82276	0.261643454538606	0.825717807631515	1.99295260717284	2,2-dimethyl-3-thiapentane	GZJUDUMQICJSFJ-UHFFFAOYSA-N
538.9	3302585.00213	0.24793589996383	0.827325632705613	2.12374297348854	1-butene, 2-ethyl-3-methyl-	ADHCYQWFCLQBFG-UHFFFAOYSA-N
304.179353468	7381764.54696	0.646067920218348	0.827942676466649	0.957675702925436	carbon dioxide	CURLTUGMZLYLDI-UHFFFAOYSA-N
700	2419256.61243	0.191245920945692	0.836577026761756	2.60658662959777	1,3,5-trimethyl-tricyclo[3.3.1.1(3,7)]decane	WCACLGXPFTYVEL-UHFFFAOYSA-N
744	3824631.22339	0.454158106120477	0.815659453800438	1.56186121403586	5,6,7,8-tetrahydroquinoline	YQDGQEKUTLYWJU-UHFFFAOYSA-N
883	6716253.87069	1.28000467075134	0.692151741859672	0.482382122586331	4,5-dichloro-1-methyl-1H-imidazole	VVYQLPWYFQBZOL-UHFFFAOYSA-N
452	2161323.24458	0.581353937896577	0.833466129140099	1.49935924853062	undecafluoropiperidine	VCEAGMYKGZNUFL-UHFFFAOYSA-N
618	3886958.16058	0.283282542747153	0.823579264748154	1.97546381632313	1,3-dichlorobutane	QBGVARBIQGHVKR-UHFFFAOYSA-N
706	1323248.27392	0.29292352144611	0.808489563707636	3.38092195062211	N,N-dimethyl(2-pentylnonyl)amine	OCKPWMNLYXGKSL-UHFFFAOYSA-N
608	3585637.45475	0.187986124627194	0.851410691956301	2.5267695788536	2,3-dimethyl-2-butanethiol	CRJLQECEGNIMNG-UHFFFAOYSA-N
740	3143251.09006	1.20365312843952	0.999998450530955	0.765802620367144	benzonitrile, o-chloro-	NHWQMJMIYICNBP-UHFFFAOYSA-N
763	2340397.71234	1.48349988433134	0.991294923226274	0.653816920309719	2,6-bis(1,1-dimethylethyl)-4-methylphenol	SMNGQGWPUVVORF-UHFFFAOYSA-N
565.3	2935641.08415	0.292755399550363	0.822702375627438	1.95343886111524	3-ethyl-2-methyl-1-pentene	HPHHYSWOBXEIRG-UHFFFAOYSA-N
668	3105312.51521	0.237553812028422	0.828308882933242	2.34173037272938	1-methylpropylcyclohexane	QTYARKOMFKRPSY-UHFFFAOYSA-N
606	2305737.46041	0.722506093452578	0.853410883192337	1.18867834631363	tetraethylsilane	VCZQFJFZMMALHB-UHFFFAOYSA-N
367.85	3379452.68218	0.165942937509939	0.843701186610807	2.652585391263	2,3,3,3-tetrafluoro-1-propene	FXRLMCRCYDHQFW-UHFFFAOYSA-N
607.51	2716106.20268	0.643019630234622	0.85512584701095	1.1722848093716	2,3,3,4-tetramethylpentane	JLCYYQOQSAMWTA-UHFFFAOYSA-N
577	2867665.52204	0.559517832425115	0.840554960671924	1.2484484556319	1,cis-2,trans-4-trimethylcyclopentane	PNUFYSGVPVMNRN-WHUPJOBBSA-N
431.95	2781464.96891	0.190875528719758	0.827678527007638	2.94841096325706	1,1,1,2,2,3,3,4-octafluorobutane	XALFNZSGFNPWSM-UHFFFAOYSA-N
643	4817970.73595	0.515072752482557	0.845834565415624	1.44572216223228	2,4-dimethylthiazole	OBSLLHNATPQFMJ-UHFFFAOYSA-N
516	3657510.28765	0.289161933849126	0.865186851511836	2.32263177038884	(Z)-3-methyl-2-pentene	BEQGRRJLJLVQAQ-XQRVVYSFSA-N
634	3860612.66217	0.297488912914812	0.822186928736956	1.7887642511915	5-ethenylbicyclo[2.2.1]-2-heptene	INYHZQLKOKTDAI-UHFFFAOYSA-N
698	3507671.17589	0.455597583030208	0.811049990526364	1.60734384597739	(mercaptomethyl)benzene	UENWRTRMUIOCKN-UHFFFAOYSA-N
729	2595367.60311	1.45070690156505	0.728996997425663	0.710549027389945	2-(2-pentyl)phenol	ROMXEVFSCNLHAB-UHFFFAOYSA-N
793	4612659.48578	1.78537087732621	0.839114969581573	0.496145978496309	3,4-dichlorophenol	WDNBURPWRNALGP-UHFFFAOYSA-N
519.994859957	2770308.19364	1.09462366215043	0.969732487818082	0.847341574186486	(+-)-1,4-dichloro-1,1,2,3,4,4-hexafluorobutane	CRWVIHDUBRTGIP-JCYAYHJZSA-N
289.748148424	5836332.76019	0.0955197650363965	0.891991258682787	1.98793501729728	xenon	FHNFHKCVQCLJFQ-UHFFFAOYSA-N
852	2592546.24538	0.681897681772769	0.828155761986271	1.47453932929802	1,2,3,4-tetrahydro-N-methylcarbazole	LXRZSWPAXJBXQM-UHFFFAOYSA-N
323.48695	8020385.95361	0.838921254588031	0.999797672119383	0.666869231603363	deuterium chloride	VEXZGXHMUGYJMC-DYCDLGHISA-N
449.001544554	3511510.50349	0.758192791227255	0.855697749926792	1.15540034528931	1,1,1-trifluoro-2-methoxyethane	OHLVGBXMHDWRRX-UHFFFAOYSA-N
858	4180260.72395	0.35584484607357	0.81019279617882	1.92469268284337	(E)-1,2-diphenyldiazene	DMLAVOWQYNRWNQ-BUHFOSPRSA-N
816	3827397.08117	1.27659980848105	0.999984852510366	0.727884218922468	4-phenylpyrimidine	MKLQPIYLZMLAER-UHFFFAOYSA-N
857	2945596.02474	0.774446783098958	0.850601622431252	1.18217061413358	1,2,3,4-tetrahydrodibenzothiophene	JCLPOPNXITXHOR-UHFFFAOYSA-N
726	2993833.56623	0.491872750680253	0.815073680921739	1.60010801025925	2,3-dihydro-4,7-dimethyl-1H-indene	IWHKMCQFAMHMSX-UHFFFAOYSA-N
707	4792240.95807	1.55744183866995	0.555816164390811	0.441792737043945	bromotrinitromethane	KWSSHZBBUQSMKF-UHFFFAOYSA-N
396.44	3950362.65529	0.660876122122244	0.923119486462888	0.91816082978848	trifluoroiodomethane	VPAYJEUHKVESSD-UHFFFAOYSA-N
594	4946124.34374	1.12476175747116	0.910468480719387	0.785042960495628	.gamma.-methoxypropylamine	FAXDZWQIWUSWJH-UHFFFAOYSA-N
538	1187953.57466	0.369858826864992	0.802264808177448	2.48141310859222	cis-perfluorodecahydronaphthalene	UWEYRJFJVCLAGH-XIXRPRMCSA-N
735	1536828.16293	0.327389628820183	0.814646751521429	3.23160707918252	8-pentadecanone	PQYGSSYFJIJDFK-UHFFFAOYSA-N
914	4162491.13281	1.77440462204412	0.913323171093919	0.547989961882807	9-fluorenemethanol	XXSCONYSQQLHTH-UHFFFAOYSA-N
536	1015361.88112	0.345387272195644	0.799189379525892	3.62925135884105	perfluoro-2,4,6,8,11,13,15,17-octaoxaoctadecane	FUEWSPZXMQYTKN-UHFFFAOYSA-N
738	2681400.38567	0.396992432416486	0.810713772237725	1.90560286496194	2,3-dihydro-1,1,4-7-tetramethyl-1H-indene	IFZVSOLCUIWLFW-UHFFFAOYSA-N
372.35	2336651.78652	1.08057747515738	0.968942590972461	0.878458982375185	difluorobis(trifluoromethoxy)methane	JBMJTZMGVDWHRJ-UHFFFAOYSA-N
889	2249390.7382	1.29580311933337	0.99997337264754	0.795073297985079	1,2,3,6,7,8-hexahydropyrene	MBAIEZXRGAOPKH-UHFFFAOYSA-N
721	2971006.06807	0.526204866759477	0.816515305904308	1.52877064902457	4,6-dimethylindan	BSYQUYXSAFIGLB-UHFFFAOYSA-N
676	2929404.66481	1.86152214610338	0.997654376596981	0.468748754011526	1-ethyl-2,3-dimethylbenzene	QUBBAXISAHIDNM-UHFFFAOYSA-N
707	4372497.3694	0.320309735726416	0.817377186752052	1.95301706661845	1,3-dihydroisobenzofuran	SFLGSKRGOWRGBR-UHFFFAOYSA-N
719	2052620.02683	0.534317944594045	0.827507501077612	2.25891533862944	n-hexyl levulinate	HBBVKEXMLPMFQQ-UHFFFAOYSA-N
398.07	3180762.04265	0.470488065830601	0.814690262679036	1.58580135707635	1,1,1,3,3,3-hexafluoropropane	NSGXIBWMJZWTPY-UHFFFAOYSA-N
427.73584	4309736.73701	0.918741670535602	0.999989810776017	0.68595072945922	bromochlorodifluoromethane	MEXUFEQDCXZEON-UHFFFAOYSA-N
499	1122427.69863	0.323249140998374	0.804676958099077	3.47893949225347	perfluoro-2,4,6,9,11,13-hexaoxatetradecane	JYLBBPMOCXISGF-UHFFFAOYSA-N
755	3028669.24525	0.887003256340695	0.946576152984658	1.37910353406231	azetidine, 1-(2-phenylethyl)-	VIXGVWUHPTYYAH-UHFFFAOYSA-N
444.88	3427785.85017	0.194429162932119	0.832057386930306	2.8633340598965	1,1,1-trifluoro-2-(difluoromethoxy)ethane	ZASBKNPRLPFSCA-UHFFFAOYSA-N
880	2902484.62515	0.54630819241297	0.827511267076727	1.6068963420231	benzo[h]quinoline	WZJYKHNJTSNBHV-UHFFFAOYSA-N
797	3578729.54575	1.31982068529607	0.999859945633168	0.869640725962695	4-chlorophthalic anhydride	BTTRMCQEPDPCPA-UHFFFAOYSA-N
693	4820123.43103	0.280556499763043	0.826681098532703	1.9398838713017	2-cyclohexen-1-one	FWFSEYBSWVRWGL-UHFFFAOYSA-N
804	1195873.41286	0.567646986581573	0.305615972808123	1.36837160907563	[R]-methyl 12-hydroxy-9-octadecenoate	XKGDWZQXVZSXAO-UHFFFAOYSA-N
308.60807928	6287173.30116	0.722961811443732	0.957785444207767	0.910352845779539	ethyne	HSFWRNGVRCDJHI-UHFFFAOYSA-N
906	2116685.09099	1.64002517924206	0.919283760629808	0.651584291109353	2,7-di-tert-butylfluorene	DFZYPLLGAQIQTD-UHFFFAOYSA-N
605	3432807.70679	0.377412413408854	0.824702387021534	1.55806632656041	1-methylethylcyclopentane	TVSBRLGQVHJIKT-UHFFFAOYSA-N
761	3539902.33129	1.20858401284134	0.999983851917215	0.959788423920773	5-fluoro-1,3-isobenzofurandione	XVMKZAAFVWXIII-UHFFFAOYSA-N
569.8	2686145.79995	0.809403388912127	0.925699661368446	1.18533227655618	(E)-2-octene	ILPBINAXDRFYPL-HWKANZROSA-N
763	3812619.79721	0.229922239893236	0.819305393286944	3.1259346210978	1,2-dichloro-3-nitrobenzene	CMVQZRLQEOAYSW-UHFFFAOYSA-N
543	1330357.10926	0.487392061208463	0.803481816742911	1.98851732982937	trans-perfluorodecahydronaphthalene	UWEYRJFJVCLAGH-IJWZVTFUSA-N
755	2876917.85024	0.368069167278638	0.810796261382042	1.78389441152429	cyclododecane	DDTBPAQBQHZRDW-UHFFFAOYSA-N
518	2486495.68721	1.29799704412604	0.899468872847246	0.631046952916108	butane, 2,3-dichloro-1,1,1,4,4,4-hexafluoro-, meso-	DRNMSWBRUAIIJO-UHFFFAOYSA-N
372.27454	8894418.06777	0.549412538578507	0.844347270970014	0.81820553503499	deuterium sulfide	RWSOTUBLDIXVET-ZSJDYOACSA-N
705	2236678.9857	1.13987598214644	0.963744850916022	0.932312078945465	1,2-dichlorononane	SAWALGNBNOPQEB-UHFFFAOYSA-N
380.085392	3135507.42542	0.170226394630399	0.838108072307569	2.67727037024284	1,1,1,2,2-pentafluoropropane	FDOPVENYMZRARC-UHFFFAOYSA-N
665	3181259.34852	0.929388658702223	0.913500223312995	0.88050467847793	2,2-dimethyl-3,4-dithiahexane	CLMXSBZIYJITQU-UHFFFAOYSA-N
510.2	3308035.30486	0.635041382053459	0.871717046496766	1.14939969220612	(Z)-3-hexene	ZQDPJFUHLCOCRG-WAYWQWQTSA-N
579	3061566.69945	0.858236687854524	0.908510237443387	0.861406913897344	1,1,2-trimethylcyclopentane	WINCSBAYCULVDU-UHFFFAOYSA-N
724	2788964.88679	0.325283390432945	0.814439058391714	2.25400063716935	2,3-dihydro-1,1,4,6-tetramethyl-1H-indene	PJPNYZCIGFQVQG-UHFFFAOYSA-N
318.666	3766491.77043	0.746297917753166	0.977519961374099	0.940250208610859	sulfur hexafluoride	SFZCNBIFKDRMGX-UHFFFAOYSA-N
657.4	3378985.56412	1.06956438119449	0.999853796185616	0.847297783871123	3,4-dithiaheptane	SNGRPWPVGSSZGV-UHFFFAOYSA-N
382.51	3632359.53267	0.36716688072352	0.819965353065159	1.71038696034805	trans-1,3,3,3-tetrafluoropropene	CDOOAUSHHFGWSA-OWOJBTEDSA-N