Tc	Pc	c0	c1	c2	name	inchikey
632	3427117.66929	0.371827636599278	0.829461720927931	2.9136981722297	.alpha.,.alpha.-dimethoxytoluene	HEVMDQBCAHEHDY-UHFFFAOYSA-N
907	1906204.99298	1.93300893144012	0.955819617460431	0.506048827899074	triphenylethene	MKYQPGPNVYRMHI-UHFFFAOYSA-N
835	1069359.98399	1.40758335931752	0.692323336673545	1.1020213887664	bis(2-ethylhexyl) 1,2-benzenedicarboxylate	BJQHLKABXJIVAM-UHFFFAOYSA-N
600	4004468.89607	0.673011285282243	0.8917064591495	1.99127314893875	isopropyl (S)-2-hydroxypropionate	KIWATKANDHUUOB-YFKPBYRVSA-N
722.391875663	1448488.59014	0.463821893966068	0.809869391788459	2.55400084108688	hexadecane	DCAYPVUWAIABOU-UHFFFAOYSA-N
626	2477105.15381	0.362841530311114	0.818793837922341	1.53515497215222	methyl cyclobutanecarboxylate	CBTGNLZUIZHUHY-UHFFFAOYSA-N
708	5377660.50501	2.39216227838465	0.996229419052252	0.468676268310786	2-methyl-1,3-propanediol	QWGRWMMWNDWRQN-UHFFFAOYSA-N
676	4000702.52336	1.51637795116185	0.999910076020262	0.715136188810243	.alpha.-tolualdehyde	DTUQWGWMVIHBKE-UHFFFAOYSA-N
417.964594971	4001998.70598	0.655322363358111	0.849156140554865	0.863337836873011	2-methylpropene	VQTUBCCKSQIDNK-UHFFFAOYSA-N
801	2578880.9759	1.14470240343766	0.50897371760946	0.889377103298537	phenyl phenylacetate	USVNNHYNCCJCCP-UHFFFAOYSA-N
418.1	6933860.60891	0.775404944566445	0.859362744250575	0.774844166259214	methanal	WSFSSNUMVMOOMR-UHFFFAOYSA-N
723.5	4038890.79278	1.5981562234099	0.851303436458845	0.621492342284461	2-phenylethanol	WRMNZCZEMHIOCP-UHFFFAOYSA-N
512.7	4515567.88181	1.3735814669155	0.999864466210957	0.460303819032615	2-propanethiol	KJRCEJOSASVSRA-UHFFFAOYSA-N
719.470304959	8263466.28636	1.34870393193663	0.99998260850657	0.825907647223417	1,2-ethanediol	LYCAIKOWRPUZTN-UHFFFAOYSA-N
666	3970508.64995	0.689590997007991	0.913326493673248	1.7663527096273	(bromomethyl)benzene	AGEZXYOZHKGVCM-UHFFFAOYSA-N
693	1849860.29979	1.41574274076143	0.00181327342973666	0.993074459944024	4-dodecanol	ZGSIAHIBHSEKPB-UHFFFAOYSA-N
818	3908385.17316	0.497513379790059	0.864974265632104	2.32499812186788	diphenylamine	DMBHHRLKUKUOEG-UHFFFAOYSA-N
610.25997	3580247.41322	0.251487984702063	0.847426385035647	2.59067382071862	pentanenitrile	RFFFKMOABOFIDF-UHFFFAOYSA-N
757	2247129.94985	1.26061113272801	0.999847820385416	0.814170583258278	1,1-dicyclohexylethane	FUZBYNWONHYNOB-UHFFFAOYSA-N
679	2331803.32611	0.693200455461327	0.832932043377346	1.40328068055567	1,3,5-triethylbenzene	WJYMPXJVHNDZHD-UHFFFAOYSA-N
805	2858858.01426	0.412653022749509	0.834467165839631	2.57382375106095	2,4-dinitrotoluene	RMBFBMJGBANMMK-UHFFFAOYSA-N
791	5134630.65283	0.625398020700505	0.913594241410068	1.76370082032118	3,5-dichloroaniline	UQRLKWGPEVNVHT-UHFFFAOYSA-N
559.911	3331507.32417	0.535619686284175	0.93642480775103	1.49178200179467	ethyl silicon trichloride	ZOYFEXPFPVDYIS-UHFFFAOYSA-N
582	3004945.4587	0	0.156286608045646	1.01635918962034	2,4-dimethyl-2-pentanol	FMLSQAUAAGVTJO-UHFFFAOYSA-N
782.1482	4976740.73858	0.726213898290561	0.837941271979819	1.06485794361553	quinoline	SMWDFEZZVXVKRB-UHFFFAOYSA-N
835	4563999.25608	1.31483203841806	0.999655442187187	0.892630644008051	3-nitrobenzenamine	XJCVRTZCHMZPBD-UHFFFAOYSA-N
645.1836	2163361.77453	0.36926329056548	0.859207727018401	2.40119196948352	decahydronaphthalene	NNBZCPXTIHJBJL-UHFFFAOYSA-N
435	4887142.67963	0.586276279841631	0.921277433285969	1.69131431966594	ethyl nitrite	QQZWEECEMNQSTG-UHFFFAOYSA-N
629	5523679.70433	0.5366009942849	0.855894788123201	2.44931568116895	2-hydroxymethylfuran	XPFVYQJUAUNWIW-UHFFFAOYSA-N
665	2695932.00565	0.558096241885854	0.908023670649357	1.81769753212486	(3-methylbutyl)benzene	XNXIYYFOYIUJIW-UHFFFAOYSA-N
633	1935904.18668	0.708417785216478	0.843118820565361	2.66310253423745	bis((2,2,3,3,4,4,5,5-octafluoropentyl)oxy)methane	WRQVEYLQVQPLKN-UHFFFAOYSA-N
702.577797952	5298890.13221	1.77014455742926	0.999936886844198	0.448097592190495	aniline	PAYRUJLWNCNPSJ-UHFFFAOYSA-N
639.734345	7616999.83149	1.25337075331144	0.99999656663171	0.647033218577416	pyrrole	KAESVJOAVNADME-UHFFFAOYSA-N
592.1	3856310.66036	0.749028038282058	0.840506934700274	0.949967449224833	1-fluoro-4-methylbenzene	WRWPPGUCZBJXKX-UHFFFAOYSA-N
611	3519838.14592	0.604424729712961	0.831210052397703	2.00946348519452	(E)-2-hexen-1-ol	ZCHHRLHTBGRGOT-SNAWJCMRSA-N
582	4397585.01581	0.456974678825697	0.923687478640939	1.66912992730645	5,6-dihydro-2-methyl-2H-pyran	QGXRIEQVMZFYOR-UHFFFAOYSA-N
738	2635158.86294	0	0.205439758206107	0.907528037604152	spiro[6.5]dodecane	ZDNANLAHKKNCTC-UHFFFAOYSA-N
788	3127119.95142	1.67181814374666	0.476383059498094	0.746627689522323	4-(1-methylethyl)-1,1'-biphenyl	KWSHGRJUSUJPQD-UHFFFAOYSA-N
377.92	3641934.79726	0.442216215491075	0.92358131004651	1.67014318824194	trifluoromethoxymethane	JRHMNRMPVRXNOS-UHFFFAOYSA-N
437.483747972	5334841.65889	1.67374187563689	0.999757032855378	0.460523511543419	dimethylamine	ROSDSFDQCJNGOL-UHFFFAOYSA-N
728	3267993.57631	2.22145393185381	0.459861723153185	0.55330047050511	4-(1-methylethyl)phenol	YQUQWHNMBPIWGK-UHFFFAOYSA-N
695	2365733.88806	1.49308814077541	0.981381452240692	0.660259782511083	hexylbenzene	LTEQMZWBSYACLV-UHFFFAOYSA-N
649.6	4410093.6038	0.171351143937367	0.836679002201122	2.77635271477852	dimethylformamide	ZMXDDKWLCZADIW-UHFFFAOYSA-N
734	1724848.20657	0.716153214260298	0.904119354863988	1.85804291799899	benzene, chloropentaethyl-	JXNSEOJLFKCHAI-UHFFFAOYSA-N
643	2585208.03017	0.598480714550738	0.828859301178694	1.54638670873025	1-chlorooctane	CNDHHGUSRIZDSL-UHFFFAOYSA-N
592.9	3538578.49191	1.17079390059445	0.911442162682457	0.665029718158625	2-thiahexane	WCXXISMIJBRDQK-UHFFFAOYSA-N
603.46	3386093.07572	2.75838791996935	0.706013481064948	0.458173649267744	4-methyl-1-pentanol	PCWGTDULNUVNBN-UHFFFAOYSA-N
601.926	2526471.21548	1.3714476822893	0.999370506647127	0.673270452776013	2-methylpropyl 2-methylpropanoate	RXGUIWHIADMCFC-UHFFFAOYSA-N
731	3457177.56507	0.931140436394144	0.88844961329646	2.02844655485855	methyl p-(methylamino)benzoate	LLAMGYUWYUMHCH-UHFFFAOYSA-N
724	3379010.92182	0.896297865060692	0.743212902119848	1.09404767721659	1-hydroxy-2,4,5-trimethylbenzene	VXSCPERJHPWROZ-UHFFFAOYSA-N
705.8	1831510.79757	0.404821266552917	0.831983199168861	2.78936761078933	1-chlorododecane	YAYNEUUHHLGGAH-UHFFFAOYSA-N
702	1915739.15286	2.91923797644605	0.782868218305011	0.445250533806474	2-dodecanol	XSWSEQPWKOWORN-UHFFFAOYSA-N
691	1826590.56975	1.14500298080729	0.929619840575988	1.26838432363728	propyl decanoate	OVFMRFMJVFDSAA-UHFFFAOYSA-N
628	2976768.87854	2.04931283096512	0.998367529210963	0.577420498873518	6-methyl-5-hepten-2-ol	OHEFFKYYKJVVOX-UHFFFAOYSA-N
804	2666591.8588	0.852615968093191	0.838232021096089	1.24462122025284	3-(1,1-dimethylethyl)-1,1'-biphenyl	GBGBXUYACWXKPV-UHFFFAOYSA-N
776	1488630.00551	0	0.276779564336675	1.12179247161843	4-(1,1,3,3-tetramethylbutyl)phenol	ISAVYTVYFVQUDY-UHFFFAOYSA-N
839	1117742.19027	0.846681584638855	0.871081539940305	2.24251933922521	7-hexadecylspiro[4.5]decane	BNDDTWKJQMCKBA-UHFFFAOYSA-N
773	1512889.144	0.804684774452986	0.799500186297841	1.60715717363632	dodecylbenzene	KWKXNDCHNDYVRT-UHFFFAOYSA-N
641	2714168.16427	1.444000501537	0.982834780289675	0.690851955466661	1-octanamine	IOQPZZOEVPZRBK-UHFFFAOYSA-N
706.882484766	1464138.65921	0.615631919776729	0.78895373028549	1.89947449034129	pentadecane	YCOZIPAWZNQLMR-UHFFFAOYSA-N
473.01	2242744.28698	0.251921729336674	0.723571678666105	2.23085572856685	1,1,1,2,2-pentafluoro-3-(1,1,2,2-tetrafluoroethoxy)propane	RPSFZSRVLPIAMN-UHFFFAOYSA-N
709.1666	4776334.92869	0.696546593795741	0.777569581699644	1.22113421474116	3-methylaniline	JJYPMNFTHPTTDI-UHFFFAOYSA-N
708	3886577.03448	0.751303891196926	0.843245056558433	1.30915637323453	2-ethylaniline	MLPVBIWIRCKMJV-UHFFFAOYSA-N
925	4133443.34065	0	0.292719966109335	0.55726280768646	phenylphosphonic dichloride	IBDMRHDXAQZJAP-UHFFFAOYSA-N
900	3929766.61686	2.69567118785831	0.92127767996078	0.266708069903039	3-bromo-2,4,6-trichlorophenol	WCSDJPCZARJMHN-UHFFFAOYSA-N
508.268124868	4749120.70931	1.13561259236353	0.967856561174462	1.19496462661398	propan-2-ol	KFZMGEQAYNKOFK-UHFFFAOYSA-N
758.3	1430234.89293	0.793973869003818	0.895132413086443	1.95340323056071	1-hexadecanamine	FJLUATLTXUNBOT-UHFFFAOYSA-N
542.792611838	6460757.43694	0.287986470375683	0.873465849784835	2.21133877395006	2,5-dihydrothiophene	WURYWHAKEJHAOV-UHFFFAOYSA-N
580	3459187.66515	0	0.239715749304392	1.05390750193142	3,3-dimethyl-2-butanol	DFOXKPDFWGNLJU-UHFFFAOYSA-N
650	2537043.30246	1.39894529285188	0.999458930147094	0.539599016458891	1-isopropyl-4-methylcyclohexane	CFJYNSNXFXLKNS-UHFFFAOYSA-N
673	3989185.37263	1.21381423768104	0.974396902077557	0.686974826331539	2-chlorophenol	ISPYQTSUDJAMAB-UHFFFAOYSA-N
566.58268	2675264.39402	1.04266351892837	0.882899472798138	0.834152398522386	oct-1-ene	KWKAKUADMBZCLK-UHFFFAOYSA-N
572	3840840.89669	0.79995743006425	0.808925179847265	0.803069409321848	3,3-dimethyl-2-thiabutane	CJFVCTVYZFTORU-UHFFFAOYSA-N
776	1868300.36757	0.823863284485539	0.885620889145683	2.06132350429879	3-decylbicyclo[4.3.0]nonane	KQVBGIINSUKIBB-UHFFFAOYSA-N
692.3	2796243.18292	0.919967312147523	0.772096075299535	1.25260131224821	3,6-dioxa-1-decanol	OAYXUHPQHDHDDZ-UHFFFAOYSA-N
655	2113895.3828	0	0.195596826101072	0.810455453105108	2,5-bis(1,1-dimethylethyl)furan	LHCFPVDATVVDLD-UHFFFAOYSA-N
703	3960057.99096	0.607253998503172	0.806761272495051	1.26078553718815	benzoyl chloride	PASDCCFISLVPSO-UHFFFAOYSA-N
558	3643026.19083	0.68047096948128	0.890769453293531	2.0020028998948	2,3,3-trimethyl-2-butanol	OKXVARYIKDXAEO-UHFFFAOYSA-N
623.4	2273077.8122	0.370158546232459	0.837900244723297	2.62216220931447	pentyl butanoate	CFNJLPHOBMVMNS-UHFFFAOYSA-N
780	3181870.58215	1.27670494277008	0.999974049869157	0.767441344768941	1,2-dimethylnaphthalene	QNLZIZAQLLYXTC-UHFFFAOYSA-N
543.9	3145870.40424	0.352748170186236	0.853483902376177	2.49425112057184	1-butanamine, N-ethyl-	QHCCDDQKNUYGNC-UHFFFAOYSA-N
652	5006307.44926	1.61559637702515	0.999981020412124	0.418469756856437	1-phenylethyne	UEXCJVNBTNXOEH-UHFFFAOYSA-N
691	3313071.21644	0.372280430950007	0.846659629253756	2.60316051529058	N,N-diethylaniline	GGSUCNLOZRCGPQ-UHFFFAOYSA-N
783	2315960.17945	2.54977842134804	0.930825565040808	0.354099977533726	1-(1-isocyanato-1-methylethyl)-4-(1-methylethenyl)benzene	JRLLJITWABKEKE-UHFFFAOYSA-N
636	4739081.69986	0.791701398368074	0.846899591549514	1.80889550676816	2,3-butanediol	OWBTYPJTUOEWEK-UHFFFAOYSA-N
601	2657634.47913	0.508292893666715	0.917907779111318	1.72250689997018	1,2,4-trimethylcyclohexane	VCJPCEVERINRSG-UHFFFAOYSA-N
759	1861450.13346	0.83681756466039	0.885468851554001	2.0630781287793	8-butyl-3-hexylbicyclo[4.3.0]nonane	FLHBJKDPWVFHDH-UHFFFAOYSA-N
601	2326170.31041	1.44923592461057	0.524891577304993	0.618661357904975	butyl 1,1-dimethylpropyl ether	FTGPSKPJRKRPSX-UHFFFAOYSA-N
660	3975759.11465	0.380510857865588	0.804728430450154	1.66995306868299	(1-methylethenyl)benzene	XYLMUPLGERFSHI-UHFFFAOYSA-N
762.7	4096151.99627	0.873413558845402	0.900779078919972	1.06087768143992	4-methyl-1,3-dioxolan-2-one	RUOJZAUFBMNUDX-UHFFFAOYSA-N
884	2886911.29373	0.981888067791066	0.987174171372543	1.06801771598556	acridine	DZBUGLKDJFMEHC-UHFFFAOYSA-N
623	3415174.56319	1.34569177702996	0.999761100967953	0.970472911875701	2-methylbutanoic acid	WLAMNBDJUVNPJU-UHFFFAOYSA-N
474.888	3689074.0673	0.997923950657543	0.91000562659223	0.744413844232932	(Z)-2-pentene	QMMOXUPEWRXHJS-HYXAFXHYSA-N
588.2	3030347.30452	0.475390028512862	0.923450722845259	1.66859957686829	1,4-dimethylcyclohexane	QRMPKOFEUHIBNM-UHFFFAOYSA-N
780	5920039.77099	0.699230984754878	0.899211857074054	1.90948926540957	1-aza-2-cycloheptanone	JBKVHLHDHHXQEQ-UHFFFAOYSA-N
633.2	2081808.88442	0.263863282026957	0.824853840318852	2.99771704953383	3-methylbutyl 3-methylbutanoate	XINCECQTMHSORG-UHFFFAOYSA-N
725	1425424.61219	0.600327568684805	0.832841090528254	2.84852143773096	ethyl (S,2E,4E)-3,7,11-trimethyldodeca-2,4-dienoate	FYQGBXGJFWXIPP-OJROSNHMSA-N
571	3669449.98257	0.884899111165529	0.819210270805836	0.722944350816296	2-methyl-2-butanethiol	IQIBYAHJXQVQGB-UHFFFAOYSA-N
703	4126190.81139	0	0.14198763924289	1.0042165322799	2,4-pentanediol	GTCCGKPBSJZVRZ-UHFFFAOYSA-N
958	1283163.44034	0.857121004324755	0.860037129592569	2.39556720668013	1,10-di(1-naphthyl)decane	MJOQAHPAUSIVEG-UHFFFAOYSA-N
602.5	2291587.92348	0.501425971571258	0.850711442696686	2.53670079348515	hexyl propanoate	GOKKOFHHJFGZHW-UHFFFAOYSA-N
638	6051965.00183	0.543880554062681	0.624758693716565	1.31116585501725	ethanol, 2-mercapto-	DGVVWUTYPXICAM-UHFFFAOYSA-N
778	2391280.94822	1.40433381887297	0.999767234251372	0.766324795466868	2-butylnaphthalene	UKAMWVYNAVUZEA-UHFFFAOYSA-N
805.361865438	1604005.76768	2.14664874531941	0.999677883987224	0.537326464762497	hexadecanenitrile	WGXGAUQEMYSVJM-UHFFFAOYSA-N
626.5	2811361.04736	1.22319761795641	0.630982897599349	0.916205431844103	(S)-4-octanol	WOFPPJOZXUTRAU-QMMMGPOBSA-N
607	2998779.81215	1.28592856342418	0.999890583656973	0.809560196735321	2,2,3-trimethyl-3-pentanol	KLIHWYNSISMOMR-UHFFFAOYSA-N
450	2406193.53239	0	0.151121094892214	0.975818512533309	1,1,1,2,2,3,3-heptafluoro-3-fluoromethoxypropane	XOFRNKSLTXTYFI-UHFFFAOYSA-N
859	1996912.6786	1.30228230323301	0.948472576348229	0.885840568551103	triphenylmethane	AAAQKTZKLRYKHR-UHFFFAOYSA-N
639	2605897.90305	0.73873984401206	0.895313565629351	1.951327419669	1-[1-methyl-2-(1-methylethoxy)ethoxy]-2-propanol	FWYJECFVUAJCPF-UHFFFAOYSA-N
711.9414	2350000	0.0844165008563404	0.643011702613516	2.79606805419786	nonanoic acid	FBUKVWPVBMHYJY-UHFFFAOYSA-N
557.1	3887113.81129	1.205909158189	0.999545388840594	0.763327174758258	1-pentanamine	DPBLXKKOBLCELK-UHFFFAOYSA-N
752	2347991.48524	1.28004392207186	0.859773583790768	0.753195899345675	.alpha.-ionone	UZFLPKAIBPNNCA-BQYQJAHWSA-N
810	2294586.79388	0.861570919102918	0.875931632019977	2.17973198879275	1,4-dimethyl-5-octylnaphthalene	BSKSLVGHMZRDLE-UHFFFAOYSA-N
638.813874186	1992323.8164	0.344983224411555	0.83816109572951	2.7501595024399	undecane	RSJKGSCJYJTIGS-UHFFFAOYSA-N
644	3169355.09018	1.40390768578087	0.968126332743639	0.919363739311447	2-ethylbutanoic acid	OXQGTIUCKGYOAA-UHFFFAOYSA-N
853	831111.553307	0	0.134115429718996	1.41681166506041	1,3,5-trimethyl-2-octadecylcyclohexane	SLYADMRXVMOLJY-UHFFFAOYSA-N
797	3065735.06135	0.998208742549545	0.661764127930619	0.828145989649784	(Z)-1,2-diphenylethene	PJANXHGTPQOBST-QXMHVHEDSA-N
747.5	1096053.5222	0.949112655408182	0.884078212674421	2.07950213148628	methyl octadecanoate	HPEUJPJOZXNMSJ-UHFFFAOYSA-N
472.2340804	4552788.29563	1.70735322755834	0.999996539115093	0.439139978644028	2-propanamine	JJWLVOIRVHMVIS-UHFFFAOYSA-N
688	3997119.61787	0.869189184331529	0.69198855251057	0.583469855157843	allyl isothiocyanate	ZOJBYZNEUISWFT-UHFFFAOYSA-N
888	2248039.31779	0	0.31765493252496	0.924015860362562	oxacyclohexadecan-2-one	FKUPPRZPSYCDRS-UHFFFAOYSA-N
708	2135482.44844	0.832932501866467	0.815826054351861	1.24370048337208	heptylbenzene	LBNXAWYDQUGHGX-UHFFFAOYSA-N
549	3662287.57865	0	0.226298216212253	1.05301754069714	2-methyl-3-buten-2-ol	HNVRRHSXBLFLIG-UHFFFAOYSA-N
604	2872028.41365	0.63454465934591	0.65042223639298	1.21689135083432	2,2,4-trimethyl-3-pentanol	AXINNNJHLJWMTC-UHFFFAOYSA-N
768	1280220.63508	1.95438068090317	0.999645350713426	0.986794481934735	(Z)-9-octadecenoic acid	ZQPPMHVWECSIRJ-KTKRTIGZSA-N
631	3484762.52737	0	0.112617388142742	1.30541432680644	2-[2-(ethenyloxy)ethoxy]ethanol	WULAHPYSGCVQHM-UHFFFAOYSA-N
693	2257254.37287	1.29126090016221	0.947052809903226	0.82876436380261	6-thiaundecane	JOZDADPMWLVEJK-UHFFFAOYSA-N
623	3397174.86757	1.28577952517221	0.999045709212655	0.836386246053578	N,N-diethylpropane-1,3-diamine	QOHMWDJIBGVPIF-UHFFFAOYSA-N
699	3771465.65711	1.20617362536387	0.672245120810675	0.7921259604159	1-phenylethanol	WAPNOHKVXSQRPX-UHFFFAOYSA-N
693	4761924.16073	0.636415961986561	0.92352093953992	1.67070131154244	(1-chloroethyl)benzene	GTLWADFFABIGAE-UHFFFAOYSA-N
655	3009465.68374	0.310728200788633	0.821759173490542	3.05699709368872	ethyl levulinate	GMEONFUTDYJSNV-UHFFFAOYSA-N
694	2162920.65764	1.82554923364925	0.998704283829112	0.585090877337257	undecanal	KMPQYAYAQWNLME-UHFFFAOYSA-N
720	2934281.62006	1.63073545280166	0.998355724558713	0.657876779193418	4-(2-methylpropyl)phenol	GDEHXPCZWFXRKC-UHFFFAOYSA-N
763	2782833.83239	1.27724273225013	0.936320430336317	0.71357709479889	2-ethylnaphthalene	RJTJVVYSTUQWNI-UHFFFAOYSA-N
621	3659417.7869	1.02278987647321	0.874379825855551	0.9310130543581	cyclohexyl methanoate	VUXKVKAHWOVIDN-UHFFFAOYSA-N
700	3290905.50015	1.23751575616944	0.999479000991498	0.84136808318633	benzyl ethanoate	QUKGYYKBILRGFE-UHFFFAOYSA-N
618	2907796.80812	1.92629874872936	0.999913164796027	0.581060381984981	2,2,4-trimethyl-1-pentanol	CWPPDTVYIJETDF-UHFFFAOYSA-N
757	1600055.28521	2.27377472518812	0.978511209660881	0.580322649004523	1-pentadecanol	REIUXOLGHVXAEO-UHFFFAOYSA-N
848	7768472.90385	0.728447180658252	0.909370078201255	1.80519390452137	1,2,4-trizolo[1,5-a]pyrimidine	SRNKZYRMFBGSGE-UHFFFAOYSA-N
493.1	3168420.30785	1.91977098897061	0.999262835429345	0.373819245653679	4-methyl-1-pentene	WSSSPWUEQFSQQG-UHFFFAOYSA-N
695	2602527.93785	0.689189817891481	0.914130436268353	1.75868233149103	pentyl benzyl ether	RSDLTJVQMXAXCA-UHFFFAOYSA-N
391.752	4611986.49024	0.588272054245766	0.945938433154304	1.3856353067444	1,1,2,2-tetrafluoroethane	WXGNWUVNYMJENI-UHFFFAOYSA-N
629	3342500.97516	0.141961350231549	0.806978265076584	3.41891197375895	propanoic anhydride	WYVAMUWZEOHJOQ-UHFFFAOYSA-N
878.3	596300.257029	1.80694297297664	0.908540842801091	1.13737010953643	pentatriacontane	VHQQPFLOGSTQPC-UHFFFAOYSA-N
803	1330797.28689	2.30287355456402	0.999555933780059	0.681450442976109	octadecanoic acid	QIQXTHQIDYTFRH-UHFFFAOYSA-N
768.276979945	1086685.35659	1.39379196103638	0.977288063153364	1.1164379025577	eicosane	CBFCDTFDPHXCNY-UHFFFAOYSA-N
763	4959745.76802	0.438392614902041	0.855035742295782	1.86961286763278	3-chlorobenzenamine	PNPCRKVUWYDDST-UHFFFAOYSA-N
745	1223409.05134	0.748547545014878	0.891738906547176	1.99089898422375	2,6,10-trimethyl-14-pentadecanone	WHWDWIHXSPCOKZ-UHFFFAOYSA-N
741.9	4154297.2201	1.4274551825563	0.765489194234331	0.811858163833835	N-methyldiethanolamine	CRVGTESFCCXCTH-UHFFFAOYSA-N
639.787719298	3625551.03413	0.23643877395555	0.805035283098702	3.46604645850977	pentanoic acid	NQPDZGIKBAWPEJ-UHFFFAOYSA-N
709	3758676.57737	2.00853302091105	0.920437836934072	0.589813861824582	1,2-hexanediol	FHKSXSQHXQEMOK-UHFFFAOYSA-N
777	2397572.33798	1.33638649253188	0.703524611450557	0.732492172809072	1,1-diphenylpropane	BUZMJVBOGDBMGI-UHFFFAOYSA-N
587.67	3008045.60466	0.789625423242453	0.846611153270865	0.922953582494535	cis-1,3-dimethylcyclohexane	SGVUHPSBDNVHKL-OCAPTIKFSA-N
604	5331934.76539	0.24340834000818	0.822182846092493	3.06342920823347	1,3-propanediamine, N-methyl-	QHJABUZHRJTCAR-UHFFFAOYSA-N
618.2	2979764.23395	1.14956723624264	0.982967363711808	1.07685431479591	ethylidene diethanoate	ACKALUBLCWJVNB-UHFFFAOYSA-N
664.9	4601555.30114	1.44694116550642	0.999996050231708	0.477358865589197	cyclohexanone	JHIVVAPYMSGYDF-UHFFFAOYSA-N
778	2360297.33071	1.44984644692075	0.998634287406619	0.686024202702128	1,2-diphenylpropane	XLWCIHPMASUXPI-UHFFFAOYSA-N
684	2091700.17942	0.702911047833943	0.882841523522393	2.0943934163766	5,8,11-trioxapentadecane	KZVBBTZJMSWGTK-UHFFFAOYSA-N
454.63	1873512.58752	0.61225059566723	0.922613224345441	1.67878439673467	pentane, undecafluoro-2-(trifluoromethyl)-	ROVMKEZVKFJNBD-UHFFFAOYSA-N
684	2488690.53556	0.655054833984318	0.882633824667459	2.09588608020251	butyl levulinate	ISBWNEKJSSLXOD-UHFFFAOYSA-N
614	2912965.60036	0.502868856053641	0.816518862963086	1.69351407838805	1-chloroheptane	DZMDPHNGKBEVRE-UHFFFAOYSA-N
530	5014762.07493	0.628584239684796	0.911586514787748	1.78329240362653	2,4-dimethyl-1,3-dioxolane	ROSFUFIOLRQOON-UHFFFAOYSA-N
583	4522054.45292	0.204793528266169	0.798932155543524	3.61548797934004	2-(ethenyloxy)ethanol	VUIWJRYTWUGOOF-UHFFFAOYSA-N
724.255087553	5687157.91877	1.49413645497384	0.999969542592351	0.887908940716723	1,4-butanediol	WERYXYBDKMZEQL-UHFFFAOYSA-N