Tc	Pc	c0	c1	c2	name	inchikey
625.6	1885895.96623	1.34294964119527	0.99996021189874	0.691285334749554	2,2,4,6,6-pentamethylheptane	VKPSKYDESGTTFR-UHFFFAOYSA-N
600	6076131.15535	0.78571175682569	0.876342376715349	0.776890754393358	thiacyclobutane	XSROQCDVUIHRSI-UHFFFAOYSA-N
679	3416015.36458	0.322668205865498	0.861014412615947	2.38174827534201	2-chloro-1,3-dimethylbenzene	VDXLAYAQGYCQEO-UHFFFAOYSA-N
533.2	3212099.9764	1.1988937511546	0.954376259065669	0.594321980564737	(Z)-4,4-dimethyl-2-pentene	BIDIHFPLDRSAMB-WAYWQWQTSA-N
533	2688759.58699	0.222079382045667	0.819410486733083	3.05236224414136	chloroacetyl chloride	VGCXGMAHQTYDJK-UHFFFAOYSA-N
751	1749205.55457	2.55905070827308	0.895676078911579	0.456228448417397	1,3-dibutoxy-5-methylbenzene	GRDRUFJNSCOGCL-UHFFFAOYSA-N
702	2903697.03046	2.52903973942266	0.881359349237536	0.367624339377028	2-{[2-(dimethylamino)ethyl](methyl)amino}ethanol	LSYBWANTZYUTGJ-UHFFFAOYSA-N
553.65	2754129.2144	0.222460436687918	0.832478939825366	2.85521235866902	1,2,2,3-tetrafluoro-1-propanol	AOWVOSYMBLPOKE-UHFFFAOYSA-N
606.6	2981884.32021	1.02694647243336	0.999953933614779	0.958712324989679	3-heptanone	NGAZZOYFWWSOGK-UHFFFAOYSA-N
508.06	3594156.6043	0.907955350137183	0.999988303091887	0.784375762648033	silicon tetrachloride	FDNAPBUWERUEDA-UHFFFAOYSA-N
685	5115900.50348	0.629884051292981	0.939135597599477	1.46011129222729	bicyclo[2.1.0]pentane-1-carbonitrile	WHGLFTRKCCWYES-UHFFFAOYSA-N
664	5749598.04265	1.21590710352273	0.935081946765832	0.593127994307541	1,2-ethanedithiol	VYMPLPIFKRHAAC-UHFFFAOYSA-N
602	4738370.83892	0.612368368509024	0.82476787096529	1.41635664450948	2-methoxy-1,3-dioxolane	VRAYTNFBRROPJU-UHFFFAOYSA-N
748	2543321.35808	1.33997878492506	0.999994642987522	0.689758974853077	dicyclohexylmethane	XXKOQQBKBHUATC-UHFFFAOYSA-N
625	2512814.66738	0.434617079536344	0.836893507794816	2.77312931518986	diisopropyl oxalate	ITHNIFCFNUZYLQ-UHFFFAOYSA-N
752	1548051.06548	0.762567248792494	0.839796326259766	1.90839336884541	diisobutyl hexahydrophthalate	QUKHPBOCBWDYMW-UHFFFAOYSA-N
723.162	3560352.32987	1.19813022432229	0.999861972583307	0.774341470045931	4-cyanotoluene	VCZNNAKNUVJVGX-UHFFFAOYSA-N
695	1795461.0744	0.736138252781152	0.868476044559984	2.27738142903751	butanedioic acid, dibutyl ester	YUXIBTJKHLUKBD-UHFFFAOYSA-N
706.84293	3820987.82773	1.21144678591271	0.999991440554058	0.838096812137381	2,5-dimethylphenol	NKTOLZVEWDHZMU-UHFFFAOYSA-N
702	2990949.87747	0.811816239620338	0.855587205457591	1.19011682399494	1-allyl-4-methoxybenzene	ZFMSMUAANRJZFM-UHFFFAOYSA-N
767	3663558.571	1.2209568127243	0.999865706354244	0.895572989593927	2-(4-chlorophenyl)ethanol	HZFRKZWBVUJYDA-UHFFFAOYSA-N
651.1	1840109.33757	0.962750845572327	0.960082416656376	1.25562400686165	2-methylundecane	GTJOHISYCKPIMT-UHFFFAOYSA-N
555	3987511.32491	0.905501558078744	0.999998856780688	0.957995344676254	2,5-dimethylfuran	GSNUFIFRDBKVIE-UHFFFAOYSA-N
779	1064431.91212	0.608582710226318	0.777692456096105	2.34176477403883	(Z)-octadec-13-en-1-yl acetate	PPNRRQMJESAXGJ-SREVYHEPSA-N
779	1066711.72882	1.02881943190909	0.83370483732819	1.34761346891721	8-hexylpentadecane	FASYBMUJVAMAFB-UHFFFAOYSA-N
602	3213732.82195	0.487787670231223	0.921312402448613	1.69028686606865	3,3-dimethyl-2-pentanone	QSHJLBQLQVSEFV-UHFFFAOYSA-N
806	4531407.56139	2.39937842706176	0.000317812268114693	0.534172135544536	N-tert-butylimidazole	AMQKPABOPFXDQM-UHFFFAOYSA-N
625	5477511.73266	0.130881330675286	0.829202006779148	2.91002144869896	tetrahydro-1,4-oxazine	YNAVUWVOSKDBBP-UHFFFAOYSA-N
790	2619136.21739	0.414761780283775	0.846822610608322	2.60023412138105	2H-pyran-2-one, tetrahydro-6-pentyl-	GHBSPIPJMLAMEP-UHFFFAOYSA-N
692	3212608.441	0.988609502448596	0.967015179163854	1.20121056890761	bis(2-chloroethoxy)methane	NLXGURFLBLRZRO-UHFFFAOYSA-N
766	1080832.017	1.85704027772274	0.999394017193099	0.71168643753456	4-propylheptadecane	KWOQMARCKSGDGU-UHFFFAOYSA-N
704.7	1608800.39859	1.03736569652211	0.935511098288541	1.50359383779211	ethyl dodecanoate	MMXKVMNBHPAILY-UHFFFAOYSA-N
456.5	4748220.37043	1.04023483179653	0.912362397132985	0.561700691374639	1,2-butadiene	QNRMTGGDHLBXQZ-UHFFFAOYSA-N
687	2678663.40013	0.668362273997422	0.703779315952679	1.56111224339056	(E)-3,7-dimethyl-2,6-octadien-1-ol	GLZPCOQZEFWAFX-JXMROGBWSA-N
731	3288026.44217	0.291881901319267	0.764016941197295	1.8864331840736	1,3-dimethyl-2-imidazolidinone	CYSGHNMQYZDMIA-UHFFFAOYSA-N
643	2789201.64749	1.40916516926669	0.794389872107399	0.873142195443802	3,5,5-trimethyl-1-hexanol	BODRLKRKPXBDBN-UHFFFAOYSA-N
706	4303838.71643	0.366594968820843	0.78580134800663	1.86941786569958	4-methylaniline	RZXMPPFPUUCRFN-UHFFFAOYSA-N
670	4080280.51199	1.16648150079346	0.872133896816644	1.03595722674484	trichlorethanoic acid	YNJBWRMUSHSURL-UHFFFAOYSA-N
489.074032585	3102636.70724	0.862276810985077	0.865822468945217	0.762370393948719	2,2-dimethylbutane	HNRMPXKDFBEGFZ-UHFFFAOYSA-N
648	3509160.37606	0.237815094451129	0.83698671781339	2.77131605410022	(methoxymethyl)benzene	GQKZBCPTCWJTAS-UHFFFAOYSA-N
866	2766325.79095	0.433542391419948	0.34999556187312	0.892104684449017	1-nonylimidazole	KCWDRMKPLNYFEA-UHFFFAOYSA-N
575.4	3940068.80041	2.33485743515419	0.997556759897002	0.466108525795985	2-methyl-1-butanol	QPRQEDXDYOZYLA-UHFFFAOYSA-N
627	9462616.09984	0.572915774530321	0.860163191661063	1.40196067479446	hydrazine	OAKJQQAXSVQMHS-UHFFFAOYSA-N
694	1950954.56305	0.479421895175955	0.835803074319518	2.79226578751934	dibutyl 1,3-propanedioate	NFKGQHYUYGYHIS-UHFFFAOYSA-N
559.6	4881367.72019	0.715765852989777	0.791174893429123	1.50994918501168	2,2-dimethyl-1-propanol	KPSSIOMAKSHJJG-UHFFFAOYSA-N
845	2956923.04097	0.977798130022074	0.316384743293888	0.694126639809569	1-heptyl-2-methyl-1H-imidazole	MKUQCQQAMZMTHI-UHFFFAOYSA-N
651	3538798.51513	0.974303947612351	0.941902447425942	1.42621767834487	3-methyl-2-butenoic acid	YYPNJNDODFVZLE-UHFFFAOYSA-N
556.1	3870000	2.42399699261329	0.661901961551326	0.50795372122867	3-methyl-2-butanol	MXLMTQWGSQIYOW-UHFFFAOYSA-N
668	3061000.17516	1.72692364188217	0.999950355386581	0.470344820201519	2-phenyl-1-butene	SQHOHKQMTHROSF-UHFFFAOYSA-N
377.26	2620021.00992	0.521279732857084	0.9129809645061	1.76895774241542	1,1,1,2-tetrafluoro-2-(trifluoromethoxy)ethane	UDKWMTKIRQSDHF-UHFFFAOYSA-N
804	3569809.37653	1.24577439603126	0.99978971981596	0.77793171096614	3-phenylpyridine	HJKGBRPNSJADMB-UHFFFAOYSA-N
824	706581.821694	2.99725189408848	0.118189557656508	0.795684353274367	2,2,4,10,12,12-hexamethyl-7-(3,5,5-trimethylhexyl)-6-tridecene	NWNPVUYOZGIYLE-UHFFFAOYSA-N
796	4659641.87473	0.769272376005955	0.795892963370377	1.49317606700124	1,3-dimethylurea	MGJKQDOBUOMPEZ-UHFFFAOYSA-N
693	2215941.53259	1.34630401095098	0.994719978767029	0.739784780561611	hexylcyclohexane	QHWAQXOSHHKCFK-UHFFFAOYSA-N
652	2535113.79489	0.549144775166022	0.872305543120569	2.22616573952848	3,7-dimethyl-6-octenal	NEHNMFOYXAPHSD-UHFFFAOYSA-N
679	1730732.74299	0.343867095136338	0.829158449830739	2.91885126021125	1,3,5-tris(1-methylethyl)benzene	VUMCUSHVMYIRMB-UHFFFAOYSA-N
556.5	2646928.0611	0.539085081933033	0.920236370769127	1.70104529034483	6-methyl-1-heptene	DFVOXRAAHOJJBN-UHFFFAOYSA-N
593	2976237.97363	1.13447160667381	0.999784425378831	0.751940503344243	1-ethylpiperidine	HTLZVHNRZJPSMI-UHFFFAOYSA-N
817	4809701.03965	0.208685933480086	0.00230790932785273	0.536741575032516	2-methyl-1-propyl-1H-imidazole	SIQHSJOKAUDDLN-UHFFFAOYSA-N
836	1365469.15367	2.51489945406964	0.993471940996984	0.408335573156031	7-butyl-1-hexyl-1,2,3,4-tetrahydronaphthalene	NYCNHRDBUAZHFC-UHFFFAOYSA-N
720	2966524.06786	1.37798703921909	0.982313851380753	0.728758316557313	(2,2-dimethoxycyclopropyl)- benzene	WZQXCQFRVQAFBO-UHFFFAOYSA-N
583.082303371	3321159.21528	0.608903988880361	0.811159025895122	1.28485230820586	3-hexanone	PFCHFHIRKBAQGU-UHFFFAOYSA-N
603.19	3436084.4642	1.18522802936731	0.999892968302361	0.60563093773196	cis-1,4-dimethylcyclohexane	QRMPKOFEUHIBNM-OCAPTIKFSA-N
793	3666879.47268	2.24882099467721	0.942062563588041	0.441741318528118	1,2-ethanediamine, N,N'-bis(2-aminoethyl)-	VILCJCGEZXAXTO-UHFFFAOYSA-N
508.065292903	4704446.78544	0.759116367923779	0.863988054290434	0.989272845332588	acetone	CSCPPACGZOOCGX-UHFFFAOYSA-N
774	2770805.45166	1.27766377550126	0.999971969751949	0.720154410912326	1,6-dimethylnaphthalene	CBMXCNPQDUJNHT-UHFFFAOYSA-N
506.06516	4803719.59922	0.622813508467046	0.861126577229412	0.953470481806967	cyclopentene	LPIQUOYDBNQMRZ-UHFFFAOYSA-N
589.520986923	2782092.50243	0.99549489818594	0.693410187170662	0.872664593532899	2-methylpropyl propanoate	FZXRXKLUIMKDEL-UHFFFAOYSA-N
599	3289359.89255	0.244554666763459	0.845244378330396	2.62109234682226	1-chlorohexane	MLRVZFYXUZQSRU-UHFFFAOYSA-N
669	1911613.45461	1.31610336096067	0.989733857415832	0.986605501618525	dipropyl 1,3-propanedioate	LWIWFCDNJNZEKB-UHFFFAOYSA-N
517	4048139.11931	1.17637677890458	0.999979179348916	0.571435408344001	2-bromopropane	NAMYKGVDVNBCFQ-UHFFFAOYSA-N
665	2886113.60318	0.735810376593627	0.948713081366657	1.35612449431406	1-ethyl-3,4-dimethylbenzene	SBUYFICWQNHBCM-UHFFFAOYSA-N
707	1535893.35954	0.559876683370116	0.819706195677785	2.45231159010204	dipropyl hexanedioate	NKOUWLLFHNBUDW-UHFFFAOYSA-N
611	2400973.18366	0	0.180220954952265	1.24701785098894	1,1,7-trihydrododecafluoroheptan-1-ol	BYKNGMLDSIEFFG-UHFFFAOYSA-N
725	3384069.69298	1.19110383320439	0.999927404004482	0.914729809055562	2,3,5-trimethylphenol	OGRAOKJKVGDSFR-UHFFFAOYSA-N
684	1588722.47702	0.797999925000824	0.922943778796479	1.67603058800198	pentane, 2-hexoxy-2,4,4-trimethyl-	IQAABZUKUXMNOI-UHFFFAOYSA-N
742	2076058.73584	0.512710868065842	0.812255405265397	2.51549720250736	dimethyl sebacate	ALOUNLDAKADEEB-UHFFFAOYSA-N
702	3851192.4744	0.630194800316431	0.820589278225495	1.29421517309972	methyl benzoate	QPJVMBTYPHYUOC-UHFFFAOYSA-N
981	2142847.55322	0.309962500168726	0.842654294588669	2.67105242687183	benz[a]anthracene	DXBHBZVCASKNBY-UHFFFAOYSA-N
757.580988769	2334548.09312	0.955390582225556	0.924913360446643	1.65024934410704	nonyl 4-oxopentanoate	WHPUFRNEEAEIIG-UHFFFAOYSA-N
619.24809656	5648698.68157	0.618909163642775	0.811347782658089	1.00291574583636	pyridine	JUJWROOIHBZHMG-UHFFFAOYSA-N
703	2335649.23603	1.02670575989038	0.936183332775262	1.49513891802225	2-(2-hexyloxyethoxy)ethanol	GZMAAYIALGURDQ-UHFFFAOYSA-N
629	2369225.31878	0.368977654147487	0.813824141187562	3.25048552703751	2-(2,2,6-trihydroperfluoroxy)ethanol	AYSXBVDLZTWPRI-UHFFFAOYSA-N
519.749974	2735371.24948	0.533481592095605	0.815393185255464	1.25865938673158	2,4-dimethylpentane	BZHMBWZPUJHVEE-UHFFFAOYSA-N
658.247423913	1804964.73412	0.534073104687175	0.793452474794912	1.82615244947397	dodecane	SNRUBQQJIBEYMU-UHFFFAOYSA-N
798	2260330.7238	1.40116711468178	0.99990505946078	0.79733035831229	1,1-di(4-methylphenyl)ethane	IDONYCOFOUUWLB-UHFFFAOYSA-N
605.6	3212542.80082	1.1742106951839	0.999627331886746	0.62757516631483	cis-1,2-dimethylcyclohexane	KVZJLSYJROEPSQ-OCAPTIKFSA-N
719	2909343.97469	0.330036716512917	0.806749060470262	3.42500411675622	1-methyl-3-isopropylcyclopentanecarboxylic acid	IBDVYGIGYPWWBX-UHFFFAOYSA-N
539.7	3220148.45958	0.712361960940706	0.872651538299997	1.39347273622435	1,1-diethoxyethane	DHKHKXVYLBGOIT-UHFFFAOYSA-N
560.379710021	3675450.20187	2.49085650731664	0.747653659775624	0.493438355082796	pentan-2-ol	JYVLIDXNZAXMDK-UHFFFAOYSA-N
612	2396929.867	0.616358224140474	0.86446542283843	2.33269095573085	diethylene glycol diethyl ether	RRQYJINTUHWNHW-UHFFFAOYSA-N
598	3386259.23207	0.11645958994372	0.837753597019874	2.75017172985628	1,1-dimethylcyclohexane	QEGNUYASOUJEHD-UHFFFAOYSA-N
838	3306968.77916	1.64451309278969	0.61463840914387	0.511548409164725	1-hexyl-2-methyl-1H-imidazole	YFSQYUBYYKHCQV-UHFFFAOYSA-N
944	1823537.23891	0.967698262570186	0.85726336496727	1.69812128634346	dibenzo[b,k][1,4,7,10,13,16]hexaoxacyclooctadecane	YSSSPARMOAYJTE-UHFFFAOYSA-N
683.770991515	4066434.255	0.430007982181341	0.819494500995244	1.57513187249458	3,4-dimethylpyridine	NURQLCJSMXZBPC-UHFFFAOYSA-N
818	3534205.57861	0.635801715011708	0.865981003533606	1.34305167632886	1-bromonaphthalene	DLKQHBOKULLWDQ-UHFFFAOYSA-N
576	3444928.98917	0.534804213424659	0.819443304909912	1.44677118896126	cyclopropanecarboxylic acid, methyl ester	PKAHQJNJPDVTDP-UHFFFAOYSA-N
679.28	4807934.54193	1.47461364925155	0.999949337454602	0.933251888400106	1,3-butanediol	PUPZLCDOIYMWBV-UHFFFAOYSA-N
738	3079289.87386	0.629369082072265	0.910584285295993	1.79322210341364	2,3,5,6-tetramethylphenol	KLAQSPUVCDBEGF-UHFFFAOYSA-N
539.85	5760178.86625	1.31515638815078	0.999998979946751	0.931746492753994	2-propenol	XXROGKLTLUQVRX-UHFFFAOYSA-N
716.46401	3869835.19792	0.335316950987237	0.738580960132994	1.94777695664455	3-ethylphenol	HMNKTRSOROOSPP-UHFFFAOYSA-N
712	2823267.42283	1.94504782038188	0.999934952631667	0.537173778416427	1,8-diaminooctane	PWGJDPKCLMLPJW-UHFFFAOYSA-N
603	3613847.19295	0.693790083352368	0.923662565875666	1.66960789460986	1,3-dioxolane, 2-isopropyl-2-methyl-	IGZQZZODNMBJLU-UHFFFAOYSA-N
578.7	2359043.06209	0.704917669360242	0.94714006257694	1.36754526539976	2,6-dimethylheptane	KBPCCVWUMVGXGF-UHFFFAOYSA-N
435.72496094	4227701.61422	0.863224681419882	0.869469820737985	0.716432941026708	(Z)-2-butene	IAQRGUVFOMOMEM-ARJAWSKDSA-N
698	2736573.72617	0.565659483588533	0.795943605979946	1.21785761374776	(2,2-dimethyl-1-methylenepropyl)benzene	OJHQXSRIBZMCSR-UHFFFAOYSA-N
729	4164492.24217	0.957631006483864	0.999948057706449	0.984199351262661	1-iodo-3-methylbenzene	VLCPISYURGTGLP-UHFFFAOYSA-N
677	2138455.76224	0.80804386880852	0.835085531573687	1.7346869398375	1,2-ethanediol dibutanoate	SFTRWCBAYKQWCS-UHFFFAOYSA-N
790	818405.865514	1.8308058763067	0.980102977189991	0.90869928025621	9-octylheptadecane	ZLIOPNROBPMBFI-UHFFFAOYSA-N
675	3300798.82033	0.845114527665842	0.982529677133248	1.0964394139876	1-chloro-4-ethylbenzene	GPOFSFLJOIAMSA-UHFFFAOYSA-N
579	2533336.08201	0.750568174851345	0.400620383841362	0.775983459154044	1,1-dimethylpropyl propyl ether	LFKBOUUQIPXNTJ-UHFFFAOYSA-N
759	3469954.51828	0.738523634349216	0.883226356472247	2.08972773776414	4-(1,1-dimethylethyl)-1,2-benzenediol	XESZUVZBAMCAEJ-UHFFFAOYSA-N
631	4619821.41116	1.03656932821928	0.999717103636221	0.756484143338491	cyclopropanecarbonitrile	AUQDITHEDVOTCU-UHFFFAOYSA-N
666	3113288.67607	1.41101538373434	0.997897629719654	0.650667286249373	benzyl ethyl ether	AXPZDYVDTMMLNB-UHFFFAOYSA-N
706	2071351.15082	0.709612898953701	0.916705988226739	1.73412447295563	1,2,3,4-tetraethylbenzene	FEWANSQOXSIFOK-UHFFFAOYSA-N
561.388686255	5504785.42317	0.24522275309375	0.839007401287117	2.15300595532499	1,2-dichloroethane	WSLDOOZREJYCGB-UHFFFAOYSA-N
872	2403734.54114	1.92239251295721	0.6073463127107	0.52853890016431	1-decylimidazole	PEPIOVUNFZBCIB-UHFFFAOYSA-N
706	2638747.3657	1.38305701472015	0.885372508126545	0.571074571028343	(1-ethoxy-1-methylethyl)benzene	JNPNJMJXGPZCNE-UHFFFAOYSA-N
730	4255411.86694	1.03188499458406	0.723186169177042	0.807500953370798	1-amino-2,5-dimethylbenzene	VOWZNBNDMFLQGM-UHFFFAOYSA-N
359	3144316.2512	1.13334285765477	0.999839576050132	0.741305810417906	hexafluoropropene	HCDGVLDPFQMKDK-UHFFFAOYSA-N
619	3597218.35434	0.884234853441702	0.965840619947491	1.20994356537418	cyclobutanecarboxylic acid, ethyl ester	SMVBADCAMQOTOV-UHFFFAOYSA-N
666.7	3584744.63764	0.347443492526667	0.783841071059011	1.76153648774335	1-methoxy-4-methylbenzene	CHLICZRVGGXEOD-UHFFFAOYSA-N
742	2839735.01191	0.561667189929083	0.811178005524531	1.39511669808041	cyclohexylbenzene	IGARGHRYKHJQSM-UHFFFAOYSA-N
602.8	2719898.82509	1.37133585886165	0.999224018756447	0.714883324118158	methyl hexanoate	NUKZAGXMHTUAFE-UHFFFAOYSA-N
665	2832739.54775	0.64413461715415	0.917837752947503	1.72345524110407	1,3-diethyl-5-methylbenzene	HILAULICMJUOLK-UHFFFAOYSA-N
633	3634103.35148	0.181445897889998	0.811425928585155	3.30796162433479	2-methylcyclohexanol	NDVWOBYBJYUSMF-UHFFFAOYSA-N
731	1629191.03178	0.924331233885566	0.618671370254237	1.24853706395238	2-tetradecanol	BRGJIIMZXMWMCC-UHFFFAOYSA-N
740	2967187.41088	0.749272096642905	0.916070403963327	1.74004787432748	2-phenoxyethyl ethanoate	WHFKYDMBUMLWDA-UHFFFAOYSA-N
662	2454900.0714	1.58591792090008	0.92156399459254	0.570377396918545	(1-isopropoxyethyl)benzene	KLOUCDOOJZGJFJ-UHFFFAOYSA-N
577	3144937.75645	1.31155586758333	0.941892798561733	0.889884552224009	4,4-dimethyl-2-pentanol	OIBKGNPMOMMSSI-UHFFFAOYSA-N
614.2	3760899.2773	0.164227653321177	0.822029421583556	3.06506533888691	ethyl chloroethanoate	VEUUMBGHMNQHGO-UHFFFAOYSA-N
640.15698	2814870.98791	0.918174910111116	0.503300979253459	1.05826996849734	2-ethyl-1-hexanol	YIWUKEYIRIRTPP-UHFFFAOYSA-N
630.8	2850587.02921	0.539422606885204	0.837698200029715	1.37888363994897	1-cyclohexylpropane	DEDZSLCZHWTGOR-UHFFFAOYSA-N
784	2983461.95952	1.3486328190776	0.99973088693251	0.671546669639371	1,5-dimethylnaphthalene	SDDBCEWUYXVGCQ-UHFFFAOYSA-N
653	2833436.68619	1.25048769705499	0.998497605646735	0.709794104421272	(R)-1-methyl-4-(1-methylethenyl)cyclohexene	XMGQYMWWDOXHJM-JTQLQIEISA-N
663	4335453.79601	1.09772223651038	0.516248581738586	0.46875042739546	ethyl isothiocyanate	HBNYJWAFDZLWRS-UHFFFAOYSA-N
831	3653612.24386	0.171292435382613	0.000589622602856392	0.59612272192311	2-methyl-1-pentyl-1H-imidazole	WYGYPEMNIUDFBC-UHFFFAOYSA-N
425.1348	4329965.90782	0.328342258834551	0.821314952415606	1.4142519684601	1,3-butadiene	KAKZBPTYRLMSJV-UHFFFAOYSA-N
703	3966370.50465	1.31342352536503	0.956502099825986	0.792727594015737	1,1,2,3,4,4-hexachloro-1,3-butadiene	RWNKSTSCBHKHTB-UHFFFAOYSA-N
662	3076146.67866	1.44857172576264	0.999945966833666	0.562194800764677	2,5-dimethyl-3,4-dithiahexane	LZAZXBXPKRULLB-UHFFFAOYSA-N
803	784251.471129	1.41920898334309	0.959080361815031	1.26243007095576	9-butyldocosane	OIHDCDZZRDGEIB-UHFFFAOYSA-N
925	1023497.99004	2.6689567249621	0.131372401133494	0.823722155677756	1-pentadecylnaphthalene	CRNKGYFOWLZFDQ-UHFFFAOYSA-N
652	4630320.0872	0.161214931873049	0.850079979086741	2.54762544682614	1,2-dibromopropane	XFNJYAKDBJUJAJ-UHFFFAOYSA-N
683	4123581.90434	0	0.234854163799289	0.684830429015179	1-ethylpiperazine	WGCYRFWNGRMRJA-UHFFFAOYSA-N
787	878160.105511	1.24185128948137	0.877831884648688	1.49017613362351	2-methyltricosane	JNHSEDRFFJZMLH-UHFFFAOYSA-N
521.6	2639134.49278	1.4128442303515	0.997827968933437	0.594900111022543	1-methylethyl 1,1-dimethylethyl ether	HNFSPSWQNZVCTB-UHFFFAOYSA-N
440	4156107.29954	0.458618084805782	0.923694830476251	1.66932595522502	2-chloro-3,3,3-trifluoro-1-propene	OQISUJXQFPPARX-UHFFFAOYSA-N
704	4780480.98291	0.992563286040798	0.998622995937948	0.828882926938022	1,3-fluoroiodobenzene	VSKSBSORLCDRHS-UHFFFAOYSA-N
926	3166841.16755	1.26479540897075	0.999559116216102	0.755475989866807	thianthrene	GVIJJXMXTUZIOD-UHFFFAOYSA-N
521	2814990.39049	0.17919500837069	0.836989949446587	2.76393243528907	2,4-dimethyl-2-pentene	VVCFYASOGFVJFN-UHFFFAOYSA-N
568.9	2637831.54198	0.546887147697196	0.920713969381158	1.69647035416361	2-methyl-2-heptene	WEPNJTDVIIKRIK-UHFFFAOYSA-N
635	6962619.30311	1.29939748601644	0.999992426339023	0.539844497323353	1,3-thiazole	FZWLAAWBMGSTSO-UHFFFAOYSA-N
667	2059293.6778	1.3970029095858	0.999000574897436	0.920189016257964	ethane-1,2-diyl bis(2-methylpropanoate)	IYBSIHJRXJGTMU-UHFFFAOYSA-N
692.714148064	4195404.90389	1.11653625947852	0.99994295324845	0.733173491243983	2-bromotoluene	QSSXJPIWXQTSIX-UHFFFAOYSA-N
711	2812654.97376	0.836353447885069	0.831357662241236	1.08015809197257	1,5-dioxaspiro[5.5]undecane, 3,3-dimethyl-	QIFSGRPJUXQGMD-UHFFFAOYSA-N
531.86019	4366357.49445	0.14784164842872	0.829972320706771	2.90390562842931	1-butanamine	HQABUPZFAYXKJW-UHFFFAOYSA-N
609	3207444.54557	2.03875583174979	0.999867571642545	0.578031210046984	2,2-dimethylpropanoic acid	IUGYQRQAERSCNH-UHFFFAOYSA-N
632.2	3270273.95927	0.903496589307828	0.941166709135748	0.941116529107062	(1-methylethyl)cyclohexane	GWESVXSMPKAFAS-UHFFFAOYSA-N
769	3495387.52518	2.09583572918581	0.703438752704155	0.326092168922362	3-chloro-4-methylphenyl isocyanate	UKTKKMZDESVUEE-UHFFFAOYSA-N
707.56724	3796999.89488	0.159476265625793	0.814906534150171	3.21563561405477	2,4-dimethylphenol	KUFFULVDNCHOFZ-UHFFFAOYSA-N