Tc	Pc	c0	c1	c2	name	inchikey
502.8	4622367.48533	1.44993546316622	0.876205981774096	0.448837457254858	3-chloro-1-propene	OSDWBNJEKMUWAV-UHFFFAOYSA-N
536.152942701	4060030.934	2.86448474078119	0.996502950752821	0.261569254287096	propyl methanoate	KFNNIILCVOLYIR-UHFFFAOYSA-N
605	3234861.90699	0.497858297284376	0.822091906738976	1.53392011735849	1-chloro-4-(trifluoromethyl)benzene	QULYNCCPRWKEMF-UHFFFAOYSA-N
854	3917441.59656	1.6872725607774	0.925360854197335	0.566563864400021	1-[2-(2-methoxyethoxy)ethyl]-1H-imidazole	PQPPCJHRQRRHTA-UHFFFAOYSA-N
644	3103073.81259	1.10534368061995	0.983228193797642	0.71562431078581	2,2-dimethyl-3-methylenebicyclo[2.2.1]heptane	CRPUJAZIXJMDBK-UHFFFAOYSA-N
833	610997.067449	2.17629282366294	0.939830516056887	0.911633422391415	9-octyltetracosane	VAVUILHRXZVBBR-UHFFFAOYSA-N
593.7	4559040.06298	0.55176331300107	0.8273410824482	1.29385079332407	nitroethane	MCSAJNNLRCFZED-UHFFFAOYSA-N
697	3623544.77105	0.353358309828294	0.845168618979949	2.62739561147574	phenol, 2-ethoxy-	MOEFFSWKSMRFRQ-UHFFFAOYSA-N
766	1073545.14999	1.92960059766092	0.999146294971577	0.668542563965953	5-butylhexadecane	WCYRXBXHFUHSAH-UHFFFAOYSA-N
632	5776766.40746	1.54813649628424	0.999954372285653	0.569466985858861	1,3-propanediamine	XFNJVJPLKCPIBV-UHFFFAOYSA-N
618.4	2530384.97628	0.255742339631588	0.824918457309352	2.99307649025499	hexyl ethanoate	AOGQPLXWSUTHQB-UHFFFAOYSA-N
855	4354150.94724	0.581335634798075	0.813911519888501	1.33540224612081	diphenyl sulfide	LTYMSROWYAPPGB-UHFFFAOYSA-N
650	1883198.4212	0.474643781191083	0.850793738643347	2.07553936061764	butyl 1,1,3,3-tetramethylbutyl ether	JVLYCQPURZKIPY-UHFFFAOYSA-N
469.753742159	3368358.90478	0.795756156674941	0.879371459760117	0.863656793106423	pentane	OFBQJSOFQDEBGM-UHFFFAOYSA-N
669.6	4282400.46269	1.35412402093463	0.800004463782065	0.511345085268336	1-bromo-2-fluorobenzene	IPWBFGUBXWMIPR-UHFFFAOYSA-N
701	3883818.82571	0.640987077936865	0.910258673918302	1.79642132619597	methyl phenyl carbonate	XTBFPVLHGVYOQH-UHFFFAOYSA-N
782	4188778.12232	0.892286419485717	0.93362722357414	1.52741705502602	2-anilinoethanol	MWGATWIBSKHFMR-UHFFFAOYSA-N
592.7	2419396.21671	0.70067080121085	0.945738497683321	1.38774990656498	3-methyloctane	SEEOMASXHIJCDV-UHFFFAOYSA-N
561.336296907	2983081.04673	1.21016494751813	0.999986588026688	0.795146371198686	2-methylpropyl ethanoate	GJRQTCIYDGXPES-UHFFFAOYSA-N
487.6	3963616.869	0.291417012682817	0.827017925213858	1.74918911011414	1,3-pentadiene	PMJHHCWVYXUKFD-UHFFFAOYSA-N
684	1236843.34589	1.09410540717766	0.897869497202619	1.34063020609905	pentanedioic acid, dipropyl ester	IXAVSISAEGUDSL-UHFFFAOYSA-N
675.677	2869224.28013	1.25376971909371	0.988348402595989	0.751762201873138	1,2,4,5-tetramethylbenzene	SQNZJJAZBFDUTD-UHFFFAOYSA-N
519.187586207	4174843.47374	0.188730488157029	0.832780490755617	2.84892522466324	vinyl acetate	XTXRWKRVRITETP-UHFFFAOYSA-N
527.8	6592101.37822	1.06448295863108	0.9997880797306	0.528869740148733	iodomethane	INQOMBQAUSQDDS-UHFFFAOYSA-N
447.4	2146755.49664	0.395732684272405	0.74894965022639	1.84893960744137	1,1,1,2,4,4,4-heptafluoro-2-trifluoromethoxybutane	DUQLKPVMMYUMNF-UHFFFAOYSA-N
641	2525749.68773	0.336377521055748	0.825415965402532	2.99563929670596	diethyl methylpropanedioate	UPQZOUHVTJNGFK-UHFFFAOYSA-N
570.5	3832697.88128	1.23568802681101	0.999948928623938	0.601718464359514	1-bromobutane	MPPPKRYCTPRNTB-UHFFFAOYSA-N
631	1191685.45925	0.245173235285558	0.772437903617318	4.22179878327768	perfluoroundecanoic acid	SIDINRCMMRKXGQ-UHFFFAOYSA-N
541.8	2901673.55179	0.812992087652346	0.999654505106088	1.00030968085217	2-methyl-1-hexene	IRUDSQHLKGNCGF-UHFFFAOYSA-N
578	5948944.97606	0.253567085980521	0.859637893531448	2.39582219628979	2,3-dichloro-1-propene	FALCMQXTWHPRIH-UHFFFAOYSA-N
418.745244	3273806.91412	0.305744120413086	0.828210411894626	1.75425462788534	1,2-dichloro-1,1,2,2-tetrafluoroethane	DDMOUSALMHHKOS-UHFFFAOYSA-N
568	2584254.91125	0.878602419310426	0.939771688532086	1.45076741406756	2,2,3,3,4,4,5,5-octafluoro-1-pentanol	JUGSKHLZINSXPQ-UHFFFAOYSA-N
698	3695634.03454	0.768794745950852	0.864463609358639	1.14393826083903	spiro[bicyclo[2.2.1]heptane-7,2'-[1,3]dioxolane]	ZOAZIDHHHOEFHR-UHFFFAOYSA-N
721	4680951.78942	0.29962532069887	0.83677850622078	1.83952959337679	iodobenzene	SNHMUERNLJLMHN-UHFFFAOYSA-N
678	3587597.81008	0.578067050614929	0.76603438216081	1.2963758240715	methyl-2-cyanoacrylate	MWCLLHOVUTZFKS-UHFFFAOYSA-N
807	809370.111999	1.80044426382639	0.971769729238522	0.83971363437182	6,11-diamylhexadecane	PNYSRXNTUVFUNI-UHFFFAOYSA-N
831	583327.3619	1.84087017108343	0.976876401190438	1.06569743067038	11-decyldocosane	ZTLKOYAJKRWSKL-UHFFFAOYSA-N
656	2834175.97133	1.04720495154279	0.999997346598813	0.940743890553934	1-ethyl-3,5-dimethylbenzene	LMAUULKNZLEMGN-UHFFFAOYSA-N
516.21	2176079.30876	0.194392071378667	0.808063055931439	3.39174215285498	1,1,1,2,3,3-hexafluoro-3-(2,2,3,3-tetrafluoropropoxy)propane	DOESGSGKEZIPFW-UHFFFAOYSA-N
747	2001262.45406	1.75907692486688	0.999340920314026	0.558982411208707	1-cyclohexyl-3-cyclopentylpropane	CPBZARXQRZTYGI-UHFFFAOYSA-N
577.78446	3374845.31192	0.283266144379923	0.845688180400723	2.61954774051396	3-methylbutyl methanoate	XKYICAQFSCFURC-UHFFFAOYSA-N
654	3920883.6528	0.434505746895903	0.817686377525762	1.51740184025213	2-chlorotoluene	IBSQPLPBRSHTTG-UHFFFAOYSA-N
569	4220810.1864	0.606016300212001	0.919573495392888	1.70716097517782	3-(ethylthio)-1-propene	NOJXPGXFDASWEI-UHFFFAOYSA-N
603	4814301.98415	0.557577072589545	0.923695560605148	1.669339124924	tricyclo[3.3.0.0(2,6)]octane	NVNHBPOLPPDKRC-UHFFFAOYSA-N
573.524034	2822091.79914	0.216611230543033	0.828208070860968	2.24024491201036	2,3,3-trimethylpentane	OKVWYBALHQFVFP-UHFFFAOYSA-N
734.988351467	2768016.09348	1.06185961656213	0.999547845501359	0.900664759864603	3-chloro-4-methylaniline	RQKFYFNZSHWXAW-UHFFFAOYSA-N
558	4220209.83884	0	0.2701615075149	0.895119660348949	2,2-dimethyl-1,3-dioxolane	SIJBDWPVNAYVGY-UHFFFAOYSA-N
537.46706783	2921132.49295	0.904563254609169	0.874293875893136	0.902281289605384	1-heptene	ZGEGCLOFRBLKSE-UHFFFAOYSA-N
555	3513186.35326	1.30946481137289	0.965574929968244	0.539929758644001	1,trans-2-dimethylcyclopentane	RIRARCHMRDHZAR-RNFRBKRXSA-N
774	3755151.4248	0.875567684559621	0.974534772450913	1.14337587822779	1,2,3,4-tetrachlorobenzene	GBDZXPJXOMHESU-UHFFFAOYSA-N
475	4080782.08424	0.519457578225793	0.923642455862365	1.66978670551182	dichloromethylsilane	NWKBSEBOBPHMKL-UHFFFAOYSA-N
586.1	2760170.42644	0.28147032126121	0.833089435458245	2.75331986589612	3-methylbutyl ethanoate	MLFHJEHSLIIPHL-UHFFFAOYSA-N
476.21	3801020.54488	1.27651049968573	0.999996185643089	0.573448700308217	1-methoxypropane	VNKYTQGIUYNRMY-UHFFFAOYSA-N
624.883758945	4674093.97402	0.212336662484938	0.846533498972698	2.60565539145736	cyclohexylamine	PAFZNILMFXTMIY-UHFFFAOYSA-N
635.2	3873344.64225	0.605368570231272	0.810110953711397	1.13927997281409	styrene	PPBRXRYQALVLMV-UHFFFAOYSA-N
563.843	5487093.9458	0.15803614525512	0.859570159222117	2.3757977057241	trichlorophosphine	FAIAAWCVCHQXDN-UHFFFAOYSA-N
668	2677030.18597	0.822948853517852	0.97083547910777	1.17286601423516	(1-methylbutyl)benzene	LTHAIAJHDPJXLG-UHFFFAOYSA-N
874	1509467.23142	1.5658773626671	0.973837001067056	0.792944976345448	1-undecylnaphthalene	DDAIBSKPPVQJSU-UHFFFAOYSA-N
620.1	4231830.12615	0	0.29404821010257	0.797382674255309	1-chloro-4-fluorobenzene	RJCGZNCCVKIBHO-UHFFFAOYSA-N
764	2733598.11452	1.27393714728519	0.95263824202276	0.838734959563735	2(3H)-furanone, dihydro-5-pentyl-	OALYTRUKMRCXNH-UHFFFAOYSA-N
950	1144246.06831	1.92814808100172	0.999674456433515	0.794917379017976	1,1'-(1-undecenylidene)bisnaphthalene	CXEYSUXGEZTNBF-UHFFFAOYSA-N
652	3909393.59685	0.230017138950717	0.838178300208088	2.74310011973836	N,N-dimethylethanamide	FXHOOIRPVKKKFG-UHFFFAOYSA-N
520.9	4523924.11909	0.518245741267464	0.9237101278154	1.66910260167814	1-chloro-2-methylpropane	QTBFPMKWQKYFLR-UHFFFAOYSA-N
840	868214.160934	1.74536477411348	0.999392875408606	0.938156265846017	2-hexadecyl-1,1'-bicyclopentyl	ZENJJKDYBBKFAI-UHFFFAOYSA-N
631	2031170.74716	1.07557754194176	0.801085474696995	0.809630897369725	pentane, 2-propoxy-2,4,4-trimethyl-	LAAOKLJBELVTBX-UHFFFAOYSA-N
702	4731458.07193	0.641686977044976	0.8335663131146	1.16059380705053	1,2-fluoroiodobenzene	TYHUGKGZNOULKD-UHFFFAOYSA-N
726	2628092.90607	0.584145183301188	0.76196692798195	1.70081221802387	1,9-diaminononane	SXJVFQLYZSNZBT-UHFFFAOYSA-N
534.430447	2704719.96624	0.18603778209945	0.819035285097447	3.13180371048206	octafluorotoluene	USPWUOFNOTUBAD-UHFFFAOYSA-N
654	2744198.50585	0.61749660444597	0.821615428315225	1.3419548956033	1,3-diethylbenzene	AFZZYIJIWUTJFO-UHFFFAOYSA-N
605.9	4190658.9894	1.5115588777395	0.888857990552242	0.570376724427545	methyl chloroethanoate	QABLOFMHHSOFRJ-UHFFFAOYSA-N
666	2304903.22027	0.843858906001305	0.831885055159377	1.41362952569941	diethyl butanedioate	DKMROQRQHGEIOW-UHFFFAOYSA-N
755	1016571.4385	1.74000914737588	0.724516431949235	0.739943511405622	7-hexyltridecane	PLHNETQGLPOKGV-UHFFFAOYSA-N
823	2740849.06137	0.255712003014707	0.827183493709149	2.95960913081675	4-(1,1-dimethylethyl)-1,1'-biphenyl	CDOYZTOFTGTGBC-UHFFFAOYSA-N
649.1158134	3260774.98948	0.539565680563331	0.824503077798618	1.44536807432795	1,2,4-trimethylbenzene	GWHJZXXIDMPWGX-UHFFFAOYSA-N
777	2473254.15466	1.21758587806613	0.894988595298715	1.2860091462877	2-iso-butoxybenzoic acid	SUSANQWSCSKXPF-UHFFFAOYSA-N
675	3443221.3182	0.966480074036553	0.910584506317757	0.854288353200126	cycloheptanone	CGZZMOTZOONQIA-UHFFFAOYSA-N
623.78594	3776883.69224	0.539539619555708	0.811390233755357	1.35829186625964	2,6-dimethylpyridine	OISVCGZHLKNMSJ-UHFFFAOYSA-N
509.844230079	4742404.41918	1.35829467632231	0.99977960747171	0.541436404450654	ethyl methanoate	WBJINCZRORDGAQ-UHFFFAOYSA-N
717	1735753.93904	1.61529168661041	0.999881993112855	0.742731338613734	2-tridecanone	CYIFVRUOHKNECG-UHFFFAOYSA-N
388.357999432	2776569.19772	0.672648684210286	0.816002533049115	1.16445198385751	octafluorocyclobutane	BCCOBQSFUDVTJQ-UHFFFAOYSA-N
694	1743018.1266	0.892734449434104	0.912132090816628	1.77800252286027	2-methylbutanoic acid 1,2-ethanediyl ester	DLGZXBYXKLZIMW-UHFFFAOYSA-N
719	1657842.52353	1.20514779568515	0.949608169415024	1.34908625654433	dibutyl pentanedioate	ISXDVFNOXYQPIA-UHFFFAOYSA-N
894	3584039.1166	0.926317440225625	0.894018855330097	1.11637113433966	1-pentyl-1H-benzimidazole	LCTJVCKLBZGNTC-UHFFFAOYSA-N
625	3106810.24434	0.688576594614274	0.811828225744265	1.13051045979173	1-hexanethiol	PMBXCGGQNSVESQ-UHFFFAOYSA-N
761	1288141.94935	1.6613166412911	0.999057071400397	0.795955392175066	(dihexylmethyl)cyclohexane	UVRPAYBHYYNXMX-UHFFFAOYSA-N
305.405726268	4879569.35839	0.493861920434674	0.883978865251077	0.922381904048939	ethane	OTMSDBZUPAUEDD-UHFFFAOYSA-N
604	4184163.4781	0.188230720509773	0.85134992281711	2.52777911686695	trichloroacetyl chloride	PVFOMCVHYWHZJE-UHFFFAOYSA-N
848	609782.070951	1.73832579069573	0.94082707216676	1.01800866967033	11-decylhenicosane	BCWYKEQUGMQGAP-UHFFFAOYSA-N
694.4	1982548.25335	0.445455336355037	0.829745861020382	2.39668943814524	1-chloroundecane	ZHKKNUKCXPWZOP-UHFFFAOYSA-N
667	4134620.05362	0.631259631468867	0.916631026072503	1.73481505317847	iodocyclohexane	FUCOMWZKWIEKRK-UHFFFAOYSA-N
672.200798037	8009331.1636	1.34319506234169	0.999999405174005	0.839152688206038	2-aminoethan-1-ol	HZAXFHJVJLSVMW-UHFFFAOYSA-N
633.8	4316263.07694	2.34191449185568	0.882864940956768	0.291271862002075	1-chloro-2-fluorobenzene	ZCJAYDKWZAWMPR-UHFFFAOYSA-N
621	5221265.06649	2.19029363058834	0.82971328067153	0.358280179410039	2-methyl-1,2-propanediamine	OPCJOXGBLDJWRM-UHFFFAOYSA-N
685	2435607.81104	0.718005949789937	0.875193790478394	2.18912493254277	1-undecanol, formate	OASFNORBKVGDRW-UHFFFAOYSA-N
700	3557010.88303	1.31143508783841	0.999781558309028	0.738942735272552	2-chloroethyl chloroacetate	XPUCYTFPMSEFIN-UHFFFAOYSA-N
482.4	4261088.29857	1.02501429675236	0.99884577418534	0.665830800705126	2-chloropropane	ULYZAYCEDJDHCC-UHFFFAOYSA-N
604.6	3036881.45409	0.880486440048334	0.846571968274194	0.919000611247977	2-pentanone, 3-ethyl-	GSNKRSKIWFBWEG-UHFFFAOYSA-N
658	3658325.9086	0.163339911261561	0.835227389924875	2.78389576699508	2-methylcyclohexanone	LFSAPCRASZRSKS-UHFFFAOYSA-N
487.2	3920992.80578	0.737723308870584	0.837195789705175	0.873423187039872	(E)-1,3-pentadiene	PMJHHCWVYXUKFD-SNAWJCMRSA-N
705	3837970.13013	0.406547783757643	0.879690408861324	2.13267770209461	trans-decahydroquinoline	POTIYWUALSJREP-BDAKNGLRSA-N
848	3848095.92124	1.94735243555469	0.402055884451821	0.461417305384868	1-hexylimidazole	KGWVFQAPOGAVRF-UHFFFAOYSA-N
636	2976904.63689	1.09859528090176	0.910846011132419	0.708689556293983	2-pinene	GRWFGVWFFZKLTI-UHFFFAOYSA-N
486.48	1949997.95081	1.51613819871472	0.9998526417141	0.751941836712054	1,1,1,2,3,3-hexafluoro-3-(2,2,3,3,3-pentafluoropropoxy)propane	JOROOXPAFHWVRW-UHFFFAOYSA-N
719	3796182.11648	0.656328766547775	0.918623657201132	1.71607394892047	2,3,6-trimethylphenol	QQOMQLYQAXGHSU-UHFFFAOYSA-N
563	4022949.33782	0.444203421535366	0.923071016668292	1.67449850972709	2,2-dimethyltetrahydrofuran	ZPDIRKNRUWXYLJ-UHFFFAOYSA-N
816.224067677	5541154.47881	0.609606186903183	0.825506232919542	1.15682048597043	1-bromo-4-iodobenzene	UCCUXODGPMAHRL-UHFFFAOYSA-N
863	2212444.65318	1.02298349294226	0.78340049929883	0.988270369536013	1-decyl-2-methyl-1H-imidazole	BKFRZOZNMWIFLH-UHFFFAOYSA-N
502.886066357	5562599.902	0.60748880110467	0.829516806941962	0.923125566635981	2-thiapropane	QMMFVYPAHWMCMS-UHFFFAOYSA-N
496	4749929.8189	0.824492919054503	0.871211182351515	0.783880604038542	3-methyl-1,2-butadiene	PAKGDPSCXSUALC-UHFFFAOYSA-N
661	2829998.8228	0.684665734170513	0.874680942041518	1.33673076936617	1-ethyl-2,5-dimethylbenzene	AXIUBBVSOWPLDA-UHFFFAOYSA-N
644.817964795	4623798.61228	0.40715667834269	0.814347134058782	1.50565269636275	3-methylpyridine	ITQTTZVARXURQS-UHFFFAOYSA-N
703	3984645.33003	0.485072288732443	0.903479426302966	1.86430409107848	1-bromo-4-chlorobenzene	NHDODQWIKUYWMW-UHFFFAOYSA-N
466.772772952	3646945.80451	1.2733180323389	0.999997599626337	0.581148623372755	diethyl ether	RTZKZFJDLAIYFH-UHFFFAOYSA-N
779.3	5058910.73781	0.21232101167515	0.836389651321913	2.78213598729614	N-formylmorpholine	LCEDQNDDFOCWGG-UHFFFAOYSA-N
530.620685581	4024727.05293	0.362991729520807	0.792651599553181	1.70771155075441	methyl propanoate	RJUFJBKOKNCXHH-UHFFFAOYSA-N
735.6	1242989.6247	1.05075660051314	0.935291179979733	1.50636573591545	2-methylheptadecane	RJWUMFHQJJBBOD-UHFFFAOYSA-N
771	4803675.18577	0.388101790130395	0.875760642197312	2.18190590575878	1,3-benzodiazine	JWVCLYRUEFBMGU-UHFFFAOYSA-N
678	3242729.79604	1.05626695340824	0.999822897632672	0.893433790731411	1-ethenyl-3-ethylbenzene	XHUZSRRCICJJCN-UHFFFAOYSA-N
672	2878683.74273	1.28671628125817	0.999867916403396	0.673165220479928	1-(1,1-dimethylethyl)-3-methylbenzene	JTIAYWZZZOZUTK-UHFFFAOYSA-N
575.78426	3494617.76211	0.512155224912965	0.878269777316464	2.15027707943102	pentyl methanoate	DIQMPQMYFZXDAX-UHFFFAOYSA-N
606	3882759.87854	0.167856446213717	0.811733389211773	3.29989855065004	pentafluorophenol	XBNGYFFABRKICK-UHFFFAOYSA-N
560.451454	4453003.11255	1.21891086958841	0.989340082328653	0.534365162526812	cyclohexene	HGCIXCUEYOPUTN-UHFFFAOYSA-N
633	6625744.29752	1.49371764519093	0.99996444099223	0.499776461049467	1,3-diazabenzene	CZPWVGJYEJSRLH-UHFFFAOYSA-N
790	1540416.49944	0.383956375583262	0.818945864025601	3.13370685155679	tridecylbenzene	MCVUKOYZUCWLQQ-UHFFFAOYSA-N
722	3860137.94451	0.979401584239653	0.943172037556555	1.24820310745715	N-methylindoline	FIRXFHJQGIIJDB-UHFFFAOYSA-N
606.8	2983855.90708	1.05637771942547	0.889699635944635	0.812790992059959	4-thiaheptane	ZERULLAPCVRMCO-UHFFFAOYSA-N
550.9	2943513.86032	0.561197607506367	0.789168887469716	1.24427673738719	methyl 2,2-dimethylpropanoate	CNMFHDIDIMZHKY-UHFFFAOYSA-N
744	1418015.63163	0.241098652906241	0.791025197517254	3.87321551184539	2-hexadecanol	FVDRFBGMOWJEOR-UHFFFAOYSA-N
893	3962661.20075	0.821963931520878	0.64472013538752	0.991989788578447	1-(2-methoxyethyl)-1H-benzimidazole	JEUJFDMULHJHDL-UHFFFAOYSA-N
591.2	3904860.9734	1.1883604457321	0.999994302687233	0.629625380486495	1-fluoro-2-methylbenzene	MMZYCBHLNZVROM-UHFFFAOYSA-N
571.15	2877724.15665	0.621017283613191	0.888945812097568	2.02277553680234	1,5,5-trihydrooctafluoropentanol	DDRFQQVDRIEKDV-UHFFFAOYSA-N
725	2416025.47785	0.920706247209174	0.755968966278309	1.10030391675222	benzoic acid, butyl ester	XSIFPSYPOVKYCO-UHFFFAOYSA-N
554.2	4858407.51077	1.18603556812263	0.99998956782535	0.520202332804761	iodoethane	HVTICUPFWKNHNG-UHFFFAOYSA-N
812	3146401.2756	0.822385019095457	0.923131168705121	1.67446399671502	3-(tert-butyl)benzene-1,2-diol	JIGUICYYOYEXFS-UHFFFAOYSA-N
500.241478621	3357852.29724	0.232637855325869	0.850367516171144	2.54327113742004	ethyl propyl ether	NVJUHMXYKCUMQA-UHFFFAOYSA-N
730	3369508.2034	1.04820366610358	0.9999938460055	0.862422514683504	1,2,3-tribromopropane	FHCLGDLYRUPKAM-UHFFFAOYSA-N
306.8825	3961285.3965	0.371701857665608	0.812885185696277	1.39600461693579	tetrafluoroethene	BFKJFAAPBSQJPD-UHFFFAOYSA-N
657	3542377.89909	0.254394755015792	0.821234462610706	3.0835352770675	2-methyl-1,5-pentanediamine	JZUHIOJYCPIVLQ-UHFFFAOYSA-N
673	3171018.33099	0.526288883835002	0.822857222426137	1.54841921901317	propoxybenzene	DSNYFFJTZPIKFZ-UHFFFAOYSA-N
772.163800952	3476947.43658	0.274650161971716	0.826431923282922	2.47841518541779	biphenyl	ZUOUZKKEUPVFJK-UHFFFAOYSA-N
482.30666	4911757.20986	0.566325408963029	0.828689228386862	1.12609253498738	methyloxirane	GOOHAUXETOMSMM-UHFFFAOYSA-N
654.8	4172289.0895	1.01321780957681	0.999976325397413	0.787882842224508	1-bromo-4-fluorobenzene	AITNMTXHTIIIBB-UHFFFAOYSA-N
686	1779863.67633	0.941949830419684	0.933823653438258	1.52426761845556	decanoic acid, 1-methylethyl ester	PKPPDYGHKDIKBH-UHFFFAOYSA-N
507.96	6356082.36512	1.10024888983812	0.930875994517187	0.598291975970762	dichloromethane	YMWUJEATGCHHMB-UHFFFAOYSA-N
513.4	3289165.8596	0.407326075340856	0.818551831087457	1.52991156616383	(Z)-2-hexene	RYPKRALMXUUNKS-HYXAFXHYSA-N
765.4	1336534.08063	0.412662032101496	0.816057681781482	3.19921137586239	1-aminoheptadecane	KAJZYANLDWUIES-UHFFFAOYSA-N
647	3548980.7683	1.08720074107492	0.887913443617944	1.03315600593355	dimethyl 1,3-propanedioate	BEPAFCGSDWSTEL-UHFFFAOYSA-N
748.33193959	4053761.09532	0.621951507346898	0.815764905476858	1.12080859441208	naphthalene	UFWIBTONFRDIAS-UHFFFAOYSA-N
605.2	2219368.32891	0.638819119971555	0.820430469609099	1.6166477742293	amyl propionate	TWSRVQVEYJNFKQ-UHFFFAOYSA-N
537	3062453.49295	0.731889245094291	0.956047435019222	1.28560952908785	2-methyl-2-hexene	BWEKDYGHDCHWEN-UHFFFAOYSA-N
670	3739405.86517	0.586490347807931	0.92332416889983	1.67268041004573	1-chloro-3-ethylbenzene	LOXUEGMPESDGBQ-UHFFFAOYSA-N
335	4022315.58924	1.14989456495926	0.999973579137407	0.642377047057	sulfuryl difluoride	OBTWBSRJZRCYQV-UHFFFAOYSA-N
757	4480012.01769	0.851374200684245	0.932944088922103	1.06863633172481	1-chloro-2-iodobenzene	MPEOPBCQHNWNFB-UHFFFAOYSA-N
534.65	3945237.27931	0	0.249231936045412	0.757743054990251	1-methylethyl methanoate	RMOUBSOVHSONPZ-UHFFFAOYSA-N
548	4242789.0218	0.786715623250531	0.93917834607542	1.2188118313876	2-methylenebutanal	GMLDCZYTIPCVMO-UHFFFAOYSA-N
660	4431263.37022	0.292311570717763	0.820118286426984	3.10792574690962	2-hydroxyethyl acetate	HXDLWJWIAHWIKI-UHFFFAOYSA-N
653	3569655.35066	1.29416808602993	0.999834241144569	0.563731205247638	spiro[4.4]nonane	PHICBFWUYUCFKS-UHFFFAOYSA-N
561.421	3732732.76234	0.20977853390396	0.842088301880663	2.67464501236041	pentan-3-one	FDPIMTJIUBPUKL-UHFFFAOYSA-N
831	5756099.7686	1.29452756442779	0.000514724343863273	0.498852714934146	1-propylimidazole	IYVYLVCVXXCYRI-UHFFFAOYSA-N
496.8	4236201.17888	1.07028023496939	0.906426223212373	0.662877282022029	2,3-pentadiene	PODAMDNJNMAKAZ-UHFFFAOYSA-N
703	2562415.7952	1.32858767698944	0.998397835947298	0.73760532167302	1,3-di-tert-butylbenzene	ILNDSSCEZZFNGE-UHFFFAOYSA-N
541.3	2961609.06396	0.556633051300754	0.929921402162522	1.5739328197013	3-heptene	WZHKDGJSXCTSCK-UHFFFAOYSA-N